ITEM: TIMESTEP
0
ITEM: NUMBER OF ATOMS
3590
ITEM: BOX BOUNDS pp pp pp
0.0 36.189250
0.0 36.189250
0.0 36.189250
ITEM: ATOMS id type x y z vx vy vz fx fy fz
1 1 9.697733 24.980090 5.367128 -0.03672883 0.04070037 -0.01401514 0.00010001 0.00009358 -0.00004941
2 1 17.653349 18.138283 29.978350 -0.06616553 0.01445090 0.03832838 -0.00000649 0.00001802 0.00001349
3 1 12.145250 32.057309 27.456381 0.02417173 -0.00300804 0.03770440 0.00011599 0.00001343 0.00008575
4 1 12.673950 33.134707 17.605891 0.00773982 -0.01221670 -0.00919739 -0.00002840 -0.00009038 -0.00000264
5 1 30.619901 31.823460 25.508399 0.03727242 -0.01119102 -0.03872401 -0.00007580 -0.00010315 0.00013349
6 1 34.368797 24.841318 22.180776 -0.02852495 -0.00186836 -0.01548575 0.00015462 0.00000081 0.00006195
7 1 3.185553 16.601065 14.949476 -0.02239117 0.00349537 0.00827103 -0.00007660 0.00018788 -0.00008174
8 1 26.846249 24.152645 3.188049 -0.00507099 0.00363486 -0.02432421 0.00015596 -0.00006473 -0.00011753
9 1 23.260597 21.911913 19.508444 -0.01410941 0.02663957 0.03342805 0.00014223 0.00001668 -0.00017313
10 1 25.536496 32.157358 8.338765 -0.02738352 -0.07559546 0.05343877 0.00002086 -0.00003643 -0.00003337
11 1 22.812415 8.652874 29.849220 -0.05241176 0.01530908 0.01585784 0.00007004 -0.00013078 0.00004436
12 1 0.691843 17.738081 19.180442 0.00268627 0.01899995 -0.02269778 -0.00003017 0.00004228 0.00013789
13 1 8.038733 20.611032 21.150647 -0.01475827 0.00901004 -0.05474155 -49315.13248754 10597.70092457 41630.43747603
14 1 3.749173 24.202085 15.223598 0.00337574 0.01647703 -0.03266575 0.00002576 0.00011111 0.00005128
15 1 8.333273 12.111572 32.793155 -0.04895415 0.04111108 0.02870622 0.00001320 0.00002209 0.00007926
16 1 29.685177 19.367661 1.183143 0.01178693 0.00205274 0.00764041 -0.00007909 -0.00018171 -0.00006522
17 1 18.310335 9.892890 6.846867 -0.03906161 -0.02890752 -0.02399070 0.00011496 0.00007691 0.00007396
18 1 33.375757 3.960050 25.152358 -0.04723248 -0.01709167 -0.02167178 2797.64318449 730.52494346 -1866.65469693
19 1 19.772208 11.310247 15.016172 0.00291576 -0.03449102 0.04274694 0.00004238 -0.00014550 0.00003027
20 1 2.594928 6.427354 8.556168 0.02256345 -0.02479096 -0.00540132 -0.00009877 0.00010625 0.00000497
21 1 1.553959 18.917871 16.887167 -0.04096758 0.02010077 0.02685873 0.87151692 -5.33893454 1.12149712
22 1 10.263761 30.289917 12.419201 -0.00783457 0.01229412 -0.06866182 -0.00001381 -0.00002047 -0.00009873
23 1 11.398981 5.921147 14.210875 -0.03822593 -0.00167261 -0.00697470 -0.00001597 0.00001166 -0.00024311
24 1 5.755308 3.878170 15.758848 -0.00961192 0.02421973 0.01331902 0.00016972 0.00014996 0.00003702
25 1 32.813303 32.959864 7.152300 -0.02315192 0.01578163 -0.02640636 -166.35125366 -757.87552113 -196.43412819
26 1 16.425023 31.444300 16.387112 0.04026721 0.02131371 -0.00533628 -1538.21468659 -555.25221798 348.30213042
27 1 15.274137 9.416368 15.811895 -0.01631009 -0.00753324 0.00479883 -0.00003327 0.00000014 -0.00010555
28 1 0.687411 20.521011 14.234134 -0.00887034 0.00167672 -0.00259845 -0.00039862 0.00069997 -0.00102861
29 1 17.848178 7.457119 0.928011 -0.02907694 -0.01746281 -0.02370056 -0.00002965 0.00002472 -0.00001329
30 1 21.992589 35.258675 17.638074 -0.00652244 0.02378540 -0.01852674 0.00008876 -0.00005779 -0.00009048
31 1 32.882528 1.072954 11.940831 0.00966729 0.00174017 -0.02662236 0.00009701 0.00006603 0.00009372
32 1 25.110265 26.154153 33.654604 0.01891455 0.03592606 0.02417634 -0.00003249 0.00000223 -0.00003275
33 1 22.572016 29.164658 2.689234 0.01843110 -0.05468098 -0.02102557 -0.00001654 0.00016000 0.00011824
34 1 11.967691 11.481620 0.099250 -0.05795665 0.00355021 0.02756985 0.00005222 -0.00008671 -0.00000746
35 1 24.094434 28.477444 25.905477 -0.00851497 -0.00701077 -0.05269263 0.00003424 -0.00004982 0.00000682
36 1 3.912330 35.457467 17.863321 -0.02200689 0.00441119 -0.04023110 0.00010112 -0.00006065 -0.00007991
37 1 20.230930 13.104360 25.040853 -0.00135418 -0.02171491 0.04104109 1012.33484040 -350.48883415 -1.14447236
38 1 16.413957 15.351664 23.040468 -0.03029711 0.02843074 0.00828164 -0.00058108 0.00039032 -0.00022199
39 1 0.453197 29.866155 30.100581 0.00146040 -0.01504761 0.00175316 0.00016780 0.00022061 0.00014036
40 1 32.167816 16.817896 22.336485 -0.01945362 -0.03193041 0.03379442 21.18557343 46.10886841 21.33440610
41 1 13.974315 4.801164 26.777878 0.01327008 0.00969154 -0.00767261 0.00009328 -0.00009724 0.00007361
42 1 32.865507 4.597134 8.708574 -0.02093910 -0.01524669 -0.01205744 -0.00015154 0.00012023 -0.00013040
43 1 29.611811 24.434448 4.077706 0.04355109 0.02107510 0.00738234 71.55317835 570.04615922 325.15071617
44 1 24.541692 24.078773 24.752885 0.02139525 -0.01820756 0.03483154 -0.00012124 0.00005324 0.00018974
45 1 13.726832 17.050185 33.242860 -0.00666990 -0.05503022 -0.04287080 -0.00002391 0.00019325 0.00007096
46 1 18.869579 27.890867 10.848941 -0.00118288 -0.01502471 0.01556261 -0.00018318 -0.00002095 -0.00010045
47 1 35.725024 10.625670 28.524254 -0.02620126 0.04758993 -0.01690235 -0.00002169 -0.00000240 -0.00000167
48 1 21.462411 18.399941 9.565487 0.00566292 0.00377738 -0.02038900 0.00005840 0.00014540 -0.00016070
49 1 23.268412 24.449829 4.495148 0.00649627 -0.02356193 0.00925434 -0.00003359 -0.00016271 -0.00005257
50 1 21.080334 14.265441 3.649438 -0.05814445 -0.01866328 -0.03882211 -0.00014872 0.00003476 0.00003703
51 1 1.181718 4.589077 12.543950 0.00475387 -0.01306066 -0.01589747 0.00013381 0.00010557 -0.00009726
52 1 33.536851 32.309797 20.030977 -0.02621151 0.02503581 0.02277791 0.00008152 0.00001133 0.00010927
53 1 34.992726 4.961914 26.917586 -0.01605834 -0.05099952 -0.04831867 269.26707247 -669.77640816 -633.84093703
54 1 22.490610 12.397487 18.741187 -0.03935298 0.04360681 -0.00091591 0.00003602 0.00009468 0.00016994
55 1 10.552754 5.612602 25.065304 0.00421671 -0.02969656 0.00621848 0.00001288 -0.00004118 -0.00020436
56 1 30.521824 28.296309 21.116819 -0.02340027 0.05353146 0.05718555 -0.00012532 0.00012410 -0.00011662
57 1 12.047357 20.530065 6.910561 0.02399254 -0.00728641 -0.00429870 612.07102173 167.19654978 851.84928467
58 1 7.476570 25.377277 29.188352 -0.02350830 -0.01278845 -0.01987305 -0.00004000 0.00012012 0.00000713
59 1 8.283894 25.546663 23.299061 -0.00792514 0.00043502 0.01686772 0.00006372 0.00020862 -0.00000962
60 1 8.617681 14.499390 33.119178 0.00485392 0.00630099 0.00807560 0.00004715 0.00006588 0.00010854
61 1 24.213966 26.399530 34.399301 -0.00170664 0.00299818 0.08866985 -0.00015239 0.00014820 -0.00003721
62 1 34.980798 10.318480 34.900120 0.01876590 -0.02338824 -0.00125817 0.00003801 0.00014232 -0.00009170
63 1 28.991712 12.318183 17.694373 -0.02667302 -0.02834574 -0.01477958 -0.00002204 0.00001135 -0.00003159
64 1 26.993727 4.308978 35.374403 0.02732124 0.01583648 0.01576689 0.00011315 -0.00008253 -0.00002128
65 1 23.166116 5.598156 24.167827 -0.04259397 0.02368484 -0.00943642 -0.00001982 -0.00001563 0.00014624
66 1 8.590541 9.114550 32.391560 -0.02407569 -0.02724265 0.01086606 -0.00014254 -0.00014849 0.00006729
67 1 22.135650 20.844561 11.785414 0.04263761 -0.00877554 -0.00265139 -0.00000062 -0.00014392 0.00001501
68 1 7.999873 33.727055 35.132341 -0.01472033 0.03094276 -0.01697254 -0.00016236 -0.00000874 0.00005158
69 1 1.246095 30.979366 32.632365 -0.00643455 -0.01913330 -0.01259175 -0.00006150 0.00000939 0.00007743
70 1 0.309298 15.633270 33.467629 0.03481404 0.00455526 0.04097378 25.52895211 -64.04643405 -33.88931147
71 1 23.096227 1.220987 2.557174 -0.02702653 -0.07810921 0.04692052 -9.63777014 1.68323559 6.24032235
72 1 28.744755 7.694361 30.911221 0.00927430 -0.00365425 0.02621344 -0.00003121 0.00000940 0.00018536
73 1 22.446891 13.175592 24.943702 -0.08967014 0.02019495 0.00805641 -85014.15630000 -62218.05269422 6828.92265734
74 1 3.284898 13.762156 9.008777 0.03740967 0.00641430 -0.01745577 0.00015399 -0.00005913 -0.00001817
75 1 35.816201 8.453289 19.145747 -0.00460096 0.03773304 0.02156870 -567.42791822 -7859.91211244 -1122.52906424
76 1 22.641171 8.232354 13.266518 0.00720216 0.00533908 -0.04983683 -0.00003811 0.00001442 0.00010302
77 1 20.928787 15.716959 32.677792 -0.00434060 0.02163173 0.02550507 0.00004074 0.00008963 0.00005402
78 1 14.732921 16.711828 9.934948 0.00270952 0.02900893 0.00105880 -1.89588105 14.98813701 -16.71633052
79 1 3.916033 4.387953 0.602497 0.04002275 -0.01282264 -0.00708263 -0.00019593 0.00012023 -0.00004459
80 1 31.183526 5.226183 26.327036 -0.03241861 0.00072619 0.00779334 0.01973800 -0.01219714 -0.01186790
81 1 12.378952 18.767550 14.509804 -0.04741062 0.00064792 -0.00930354 -0.00005393 0.00002275 0.00019731
82 1 28.546970 7.361695 2.422486 0.01313951 -0.06166764 0.00888055 5.91010938 -7.94605674 -17.74442261
83 1 17.378682 12.546993 16.756438 0.00181360 -0.02450884 0.03252804 -0.00002641 0.00005029 0.00007613
84 1 14.174464 21.523728 31.310180 0.04022443 -0.02933354 0.03364154 0.00001416 -0.00000170 0.00013433
85 1 17.532788 28.065233 3.581362 -0.00909696 0.01025914 0.05489287 -0.00002549 0.00000808 -0.00011567
86 1 28.665992 23.752923 12.336603 -0.03243332 -0.01542008 -0.03574427 -0.00014150 0.00002890 0.00000442
87 1 11.458724 18.507281 19.698041 0.02252527 -0.03527726 0.06881526 0.00105424 -0.00041437 -0.00054683
88 1 24.132268 13.676226 7.018234 -0.01228391 0.02123980 -0.04047619 0.00013416 -0.00001138 -0.00009858
89 1 7.601975 16.000756 23.953280 -0.02242134 0.02657894 -0.06869842 -0.00010593 -0.00007160 0.00021203
90 1 4.296331 7.969115 12.492709 0.04236092 -0.00763823 0.02067067 6.62501241 13.37882837 43.46818695
91 1 2.069801 35.368592 11.288748 0.02192489 -0.03900330 -0.03711652 -0.00008888 0.00007274 -0.00006545
92 1 2.892502 1.226232 9.781795 -0.05068156 0.05590702 -0.03834764 0.00003355 0.00002415 -0.00000105
93 1 6.105353 13.537595 30.313506 -0.03672333 -0.03181865 0.01663825 0.00014335 0.00003070 0.00008860
94 1 7.910211 7.263356 10.301935 0.09136691 0.02046868 0.00332974 0.00092637 -0.00010990 -0.00040316
95 1 34.270049 13.439948 10.183957 -0.01893730 -0.01690052 0.01598051 0.00010475 0.00016323 0.00007956
96 1 19.016491 11.351903 15.073664 -0.06626598 0.00485225 -0.07261710 -0.00001366 -0.00024125 0.00002451
97 1 20.676845 34.432709 18.751241 -0.01463769 0.01280514 -0.00100079 0.00007868 0.00017942 0.00008798
98 1 1.544686 32.769565 20.385460 -0.01282316 -0.01785351 -0.06209568 210.54158081 361.54927289 -398.41814123
99 1 18.581897 32.941639 27.763945 -0.05053621 -0.00340609 -0.01791745 -0.00015805 -0.00015426 0.00010521
100 1 22.072626 17.873972 10.305488 0.04711890 0.00830339 -0.00434549 -0.00004143 -0.00002188 -0.00002337
101 1 25.250994 32.908118 14.416495 -0.03982832 -0.00368008 -0.04248836 -0.00011208 -0.00006837 -0.00001811
102 1 15.002149 12.634878 31.531351 -0.02866600 0.02024336 -0.01238860 -0.00001880 0.00003251 -0.00011519
103 1 33.940746 30.316370 26.776701 -0.01527196 0.03438451 0.03041520 0.00013265 0.00013642 0.00001176
104 1 10.461641 22.173336 20.669017 -0.00698682 -0.01702497 -0.01201151 -0.00858183 -0.00552775 0.00178609
105 1 24.169624 14.817017 27.550257 -0.03289422 -0.04549940 -0.00815544 0.00136652 0.00131364 0.00216759
106 1 35.048771 1.691402 35.615864 -0.01857379 -0.02438262 0.04503875 0.00004165 -0.00009248 -0.00025717
107 1 17.832709 5.147234 19.355748 -0.00285300 -0.02590030 -0.00516402 -0.00009391 0.00000028 -0.00009807
108 1 23.986280 32.815968 17.851488 0.00163791 -0.03203224 -0.01616640 -15303274.38235324 -6398150.75178010 -73651497.78734213
109 1 7.627216 22.383892 8.169398 0.02324647 -0.04558535 0.02625646 -0.00044810 0.00029738 0.00010457
110 1 19.570923 15.701116 0.826568 0.04810607 -0.04642333 -0.00218233 0.00000232 0.00003785 -0.00016796
111 1 21.771567 28.512090 34.730479 0.00133999 0.01362316 0.02470106 0.00001023 0.00008129 -0.00016012
112 1 29.477606 2.790368 10.691445 0.03588101 0.00060938 -0.03215354 474236.87016309 1755322.54791832 -217948.96285232
113 1 14.311929 25.600262 9.206321 0.02679060 -0.00290893 -0.01010274 -0.00001589 0.00018857 0.00010761
114 1 29.013689 3.699684 1.135243 -0.03970309 -0.01206580 0.02497899 0.00029982 -0.00164802 -0.00035389
115 1 9.777497 6.811479 3.906239 0.02952792 -0.00889429 0.01129989 0.00009302 -0.00003235 0.00014208
116 1 9.344715 29.476012 26.488079 -0.03862544 -0.02102083 -0.02371791 -0.00001771 -0.00005409 -0.00010367
117 1 21.840732 8.007780 24.192178 0.00727428 0.03651816 0.01345196 -0.00011557 -0.00052592 -0.00011458
118 1 18.580230 27.620604 33.592059 -0.02440896 -0.03924916 -0.01884874 -0.00000114 -0.00001357 0.00005167
119 1 28.052237 17.591400 23.653221 -0.00588544 0.02881292 0.07714504 2882152.07742722 -9495108.83731867 -11640543.17402835
120 1 30.856293 3.399322 9.192191 -0.04221164 0.01207660 0.00986771 -38.91202043 13.85919324 11.01012920
121 1 19.410702 25.077580 15.520506 -0.04558054 0.01824740 0.02137418 0.00005709 -0.00002868 0.00000786
122 1 2.671897 15.504367 2.721841 0.03555221 -0.01279705 0.06986570 -0.00009594 -0.00009674 0.00029034
123 1 13.504369 15.403116 5.239769 0.03647697 0.02053053 0.01471673 0.00004954 -0.00020508 -0.00035719
124 1 34.732597 17.991108 15.064057 0.03511067 -0.00007714 0.00672129 -0.00208361 -0.00067134 -0.00120666
125 1 20.955642 26.156245 15.081655 0.00435944 -0.02707028 -0.00347766 -0.00007761 -0.00015676 -0.00009508
126 1 9.729835 29.885217 13.135627 0.00175367 0.02335479 -0.02160208 -0.00010401 0.00011819 0.00003066
127 1 12.772801 28.255462 33.417067 -0.01902102 0.02181528 -0.05067421 0.00006068 -0.00009931 -0.00009279
128 1 29.690656 14.096542 25.591243 -0.03235003 0.01842152 0.03883210 0.00011618 -0.00100174 0.00075962
129 1 17.779013 30.763802 20.868258 0.03193311 0.03379759 -0.03324533 0.00015722 -0.00010543 0.00052601
130 1 18.841575 30.158332 4.078949 0.02454504 0.06400077 -0.00465335 0.00016586 0.00002824 -0.00005829
131 1 4.273790 13.004457 9.995200 -0.02752153 -0.02723711 -0.04216293 -0.00004108 0.00018785 -0.00004798
132 1 19.272418 20.415764 17.108168 0.05016498 0.06230806 0.00566975 435042.14039628 28247.12677246 1090380.76872912
133 1 10.049134 34.873167 24.390213 0.00568791 0.01329553 -0.06567188 2.29422182 -1.20371603 -8.23232457
134 1 34.705905 9.698184 4.026260 0.00776128 0.00562572 -0.00829153 0.00000641 -0.00008366 0.00016974
135 1 31.606177 33.919908 1.496906 0.01540113 -0.03022649 -0.00732344 0.00005673 -0.00001210 -0.00007282
136 1 18.038211 25.940242 18.113482 0.03616278 -0.00581916 0.03261588 0.00000143 0.00005615 0.00011638
137 1 11.676913 23.133831 9.291512 0.00715236 0.00138325 0.00824471 -0.00012146 0.00197421 0.00170346
138 1 17.739869 14.746943 34.947040 0.01834076 -0.01120214 -0.01615893 -0.00008401 0.00008672 0.00011118
139 1 29.415011 2.237094 22.217848 -0.02132430 0.05041012 0.02399966 -0.00033926 0.00001349 -0.00032192
140 1 28.487886 22.018640 9.646449 -0.05341205 -0.03596980 0.00216788 0.00005792 -0.00008404 0.00022528
141 1 15.130093 12.912703 29.612323 -0.00769158 0.00946195 -0.00774218 0.00003493 -0.00007015 0.00012400
142 1 27.756050 17.735931 29.913551 -0.02207618 -0.02144706 0.01509561 -0.00000898 0.00000240 0.00039845
143 1 21.296644 7.959580 31.464985 0.01766600 -0.01900783 0.05191368 -0.00002315 0.00016346 -0.00001036
144 1 34.860157 1.270930 13.302739 -0.00078212 -0.02035698 0.01186717 0.00019715 -0.00006906 0.00010846
145 1 14.962330 30.471542 7.843973 -0.02076121 -0.01139655 -0.01521987 -0.00000948 0.00005532 -0.00014947
146 1 4.088876 12.311079 1.346685 0.00036334 -0.00481206 0.04687022 0.00010792 -0.00008050 0.00019199
147 1 31.427748 11.615241 10.277877 -0.01865975 0.01081436 0.01009903 0.00010180 0.00011270 0.00002939
148 1 20.498703 31.402870 7.896138 0.02253747 0.02082684 0.00824068 -0.00006961 -0.00004609 -0.00004046
149 1 32.477037 11.012421 17.266795 0.02831463 -0.00824671 -0.02235041 -0.00064015 0.00045011 -0.00024060
150 1 1.774939 16.672303 1.030126 -0.00546851 -0.02257311 -0.04756214 0.00024603 0.00042339 0.00123046
151 1 0.733724 19.607996 7.808837 0.02978551 0.00807642 0.01703665 0.00013494 0.00001718 0.00007785
152 1 28.124035 25.507677 2.406301 0.01239941 0.03077142 0.01693442 0.11212731 -0.08087378 0.12605818
153 1 23.591027 27.503027 34.137176 -0.01792891 0.03987452 0.01153199 -0.00005946 -0.00002412 0.00013393
154 1 6.583668 0.425135 0.049824 0.04426659 -0.01534323 0.03932193 10495.79237082 15013.67171567 -970.13987163
155 1 30.271637 17.943639 6.582713 -0.04247094 -0.05638822 -0.01192296 283.22370835 -39933.03015415 9688.25390848
156 1 9.908952 18.710848 2.927395 -0.03123557 0.02845724 0.00205471 -0.00019322 -0.00029418 -0.00036103
157 1 27.519998 32.678383 32.156762 -0.00188716 0.02557082 0.01318513 -0.00006868 0.00017491 -0.00006976
158 1 12.153598 3.975030 16.722248 -0.01807292 0.06274106 -0.00982776 0.00000105 0.00002110 0.00005068
159 1 19.007132 17.669026 4.895476 0.03130407 -0.00635254 0.02249833 0.00002627 -0.00013352 -0.00014758
160 1 26.304939 18.301095 19.533760 0.00371263 0.02286131 0.01020267 -0.00046208 0.00015233 -0.00070294
161 1 2.994449 15.117455 19.121506 -0.00301403 0.00966309 -0.01398566 0.00028522 -0.00039266 0.00040113
162 1 16.514134 11.055904 1.170107 -0.05519362 0.00951034 0.01741385 -0.00003940 0.00010614 0.00007881
163 1 34.568784 0.139780 33.719512 -0.00506284 -0.07066134 0.01355098 0.00010016 -0.00014967 0.00009645
164 1 18.843436 27.002129 7.002463 -0.00619276 0.01323086 0.03757846 -0.00012327 -0.00005635 0.00008375
165 1 12.590838 5.788266 1.015591 0.01280357 -0.02857496 -0.02480145 -0.00006766 -0.00008420 0.00014417
166 1 19.618292 17.575409 21.236374 0.00269527 0.02242789 0.01596320 0.00004230 0.00007643 0.00022874
167 1 9.638204 21.542778 12.406964 0.00236826 0.00930036 -0.00050853 -0.00003277 -0.00010387 -0.00023791
168 1 10.250126 19.892988 29.595651 -0.03729290 -0.03656394 0.00990224 -0.00003103 -0.00005347 -0.00011500
169 1 31.243567 22.515891 34.882692 0.03825170 -0.00228795 0.03604371 0.00011255 -0.00006601 -0.00019126
170 1 18.563900 9.219573 6.897437 0.03597267 0.01732049 -0.00323379 -124601.98276740 71760.34845556 -42989.58738599
171 1 13.946304 6.857097 3.680773 -0.01255082 -0.01305184 -0.01909365 -0.00003977 -0.00007742 0.00010555
172 1 19.350639 20.907569 25.777317 -0.04074587 -0.03220471 0.04717661 -0.00003437 0.00000833 -0.00004454
173 1 2.375080 13.112608 9.298047 -0.01422137 -0.01218724 -0.02819687 23141.59077367 28890.79434278 -12747.93782491
174 1 26.590061 23.699343 30.863755 0.00356793 -0.01517843 0.01755847 -0.00001868 0.00005654 -0.00016632
175 1 34.420234 4.447520 15.954606 0.00069451 -0.00494583 -0.01292785 -0.00001758 -0.00032322 0.00004320
176 1 19.786280 27.514920 16.279342 0.02068433 -0.01064346 0.00579393 0.00028772 -0.00033404 -0.00008130
177 1 10.364774 28.466289 28.689016 0.01452044 0.01648895 0.01976584 0.00009167 -0.00008286 -0.00015456
178 1 2.041319 33.645653 19.461139 0.00925655 -0.03590251 0.01010603 -207.40580153 -365.87523987 386.01821297
179 1 15.437765 11.899795 33.314878 -0.02616505 0.01310969 -0.01017915 0.00004151 0.00007046 -0.00010847
180 1 30.704197 4.591103 34.417085 -0.01011758 0.01336636 -0.05510778 0.00026744 -0.00016830 -0.00019065
181 1 19.257713 21.596822 28.842150 0.03211993 0.03650838 -0.00337267 0.17454560 1.43405511 -1.42254207
182 1 0.745650 22.767884 19.814047 -0.02257676 0.03305486 0.03146126 -0.00004918 0.00038942 0.00020568
183 1 4.733750 19.545148 35.824228 0.01745835 0.04378871 0.02181897 0.00039175 -0.00001412 -0.00008632
184 1 15.231385 21.085394 28.969810 0.01846178 0.02378390 -0.05540896 -0.00149538 0.00002890 -0.00002470
185 1 7.834682 23.410837 27.558718 0.00812236 0.00547995 -0.01692138 -0.00002044 -0.00009647 0.00010078
186 1 24.037611 29.345081 19.799725 0.01955866 0.00975621 -0.02488192 -1593.63885025 -366.49826425 -251.54679092
187 1 3.398433 11.012023 34.485379 -0.00584196 -0.01989728 -0.03021983 0.00002535 -0.00005123 0.00000938
188 1 6.464217 14.664616 3.760564 -0.00132799 -0.02827368 0.03424864 0.00005251 0.00004024 -0.00002024
189 1 33.192965 31.839401 22.803796 -0.02474162 0.02787128 0.02021262 -0.00025306 0.00002343 -0.00003570
190 1 11.270512 2.609206 27.999003 0.05354846 -0.00368634 -0.00492154 -0.00011379 0.00003508 0.00024878
191 1 26.605807 1.137508 23.695649 0.02001516 -0.05018493 0.02188395 -0.00000590 -0.00006160 -0.00001195
192 1 30.503797 28.016343 16.810606 -0.05756343 0.00294441 -0.02063946 -0.00008943 0.00007849 0.00011144
193 1 26.187874 19.979025 19.863640 -0.02966645 -0.02463120 -0.01795560 -0.00012955 0.00033771 -0.00041225
194 1 10.572687 28.762543 7.704005 0.02531761 0.06618056 -0.01052934 -0.00013653 0.00010114 0.00020064
195 1 15.438251 29.930691 33.699621 0.04214721 0.01881764 0.00771619 0.00010596 0.00007639 0.00001480
196 1 33.387012 33.448063 33.619362 -0.02591343 0.01000335 0.01276063 11567.93744318 -5915.65160890 18289.01882088
197 1 19.372872 0.332646 18.140376 0.01983803 0.00006169 -0.01254614 -0.00000042 0.00018624 0.00009938
198 1 7.852273 20.492572 6.691237 0.00924562 -0.03034156 0.00109871 -0.00139071 -0.00009958 -0.00016959
199 1 13.483555 31.694213 34.800012 -0.02735950 -0.03780350 -0.04410762 -723497.48429096 400711.78647158 135325.25903171
200 1 35.848799 0.838116 11.545401 0.01650994 -0.00154574 -0.01873741 0.00014092 0.00001737 0.00005624
201 1 20.056848 35.725383 19.137790 -0.00481147 0.00232507 0.03429270 -0.00035683 0.00032025 0.00018825
202 1 4.261875 33.251231 24.840207 0.01916341 -0.03018043 -0.00434946 0.00002020 -0.00005909 0.00035904
203 1 3.757565 31.039715 31.652648 0.03008863 0.00247307 0.00894384 0.00014440 -0.00014593 0.00001940
204 1 8.975423 5.421324 23.765499 0.03688145 0.02271840 -0.00189453 0.00007670 -0.00011587 -0.00000872
205 1 34.169092 26.873902 30.259186 -0.00768176 0.05297280 0.04892637 0.00016751 0.00002680 -0.00014352
206 1 20.491101 33.556905 31.587883 -0.04730467 0.01265707 0.02663086 -66814.67442507 236182.80414857 93028.66036462
207 1 11.201422 19.333407 30.601893 0.00040003 0.04543043 -0.01735627 -0.00008368 -0.00001452 0.00001600
208 1 11.991136 10.275964 10.762065 0.03161891 -0.04286667 -0.01878272 -0.00005365 0.00001427 0.00006485
209 1 23.313748 20.926212 1.946422 0.02024809 0.05431017 -0.01534702 0.00003967 -0.00002270 -0.00001433
210 1 33.221211 13.514998 7.194150 -0.00658596 -0.00194429 0.02274894 -0.00004989 -0.00038420 -0.00018348
211 1 8.273561 30.726537 31.721803 0.01699863 -0.01601644 0.03541746 -0.00011031 0.00006689 0.00000523
212 1 25.713719 22.980692 11.765870 0.04138689 -0.00507419 -0.01882623 0.00010977 -0.00004226 0.00002348
213 1 21.149136 29.760706 28.454898 0.05497039 -0.01734798 -0.00475856 -798717444.84231102 -14661764.56753665 361862477.40616149
214 1 0.439117 23.790888 19.526454 -0.02877490 -0.00091383 0.00556834 0.00002201 0.00020511 0.00013192
215 1 15.099321 33.750212 14.650344 -0.03158511 -0.00844954 0.01026211 -0.00042259 0.00037854 -0.00038256
216 1 6.638189 12.938962 6.317578 0.00106195 0.01047475 0.01225122 0.00027335 0.00016040 -0.00013030
217 1 32.691004 14.609592 20.427506 -0.05980448 0.02461820 0.01682804 -0.00115576 0.00522782 0.00452120
218 1 33.298134 3.490842 35.292016 -0.04393164 0.01217615 0.02812871 0.00007506 0.00006934 -0.00000838
219 1 4.304022 31.720855 34.174070 0.02927636 0.03207548 0.07560897 -0.00016859 -0.00003241 -0.00016651
220 1 14.628896 13.962638 24.948415 0.00778664 -0.00249986 0.02258624 -0.00027635 0.00016583 -0.00007720
221 1 16.327747 13.849901 3.993659 0.00214534 0.04262308 0.02276817 0.00006777 0.00026332 0.00001867
222 1 10.630989 4.413496 28.574843 -0.00019267 -0.02225684 -0.01441351 -0.00002591 -0.00004235 -0.00002208
223 1 32.591607 22.008626 31.445751 0.00401042 0.02194645 0.00038041 61599.67473120 -239349.49251984 167535.50122314
224 1 3.386399 21.843458 4.331575 0.01619373 -0.00706043 -0.05291500 0.00001322 -0.00001351 0.00005729
225 1 27.786935 29.049095 28.512716 0.00482933 0.07271373 -0.03200557 0.00004376 -0.00009654 -0.00007736
226 1 5.152357 17.054808 26.160880 -0.03806080 -0.05444936 -0.03283857 0.00010057 -0.00003109 -0.00000112
227 1 3.130985 20.854562 8.305367 0.00421188 -0.00716420 -0.01034667 -0.00005479 0.00000184 -0.00009881
228 1 10.113925 18.007998 7.692019 0.00471846 -0.01333160 -0.03398762 -0.00129302 -0.00124999 0.00012772
229 1 10.072304 1.918060 20.975944 -0.02873073 0.00866612 0.03461108 0.00001298 0.00038719 -0.00061034
230 1 13.631616 15.505837 26.533868 0.01770576 -0.01363238 0.03687308 -0.00009028 -0.00003332 -0.00011697
231 1 23.045830 6.137957 12.471977 0.01954264 -0.06179243 0.04118747 3908.85502394 -41857.19818541 -6777.92685751
232 1 20.273162 34.325005 31.888375 0.01689187 -0.01322263 0.02833060 67368.79954112 -237433.29078664 -92887.38181721
233 1 4.070460 29.422376 9.263477 -0.01719482 0.03546658 -0.00343100 -0.00016172 0.00015904 0.00015066
234 1 33.431728 19.617169 28.206697 0.00126677 0.00953804 0.00235530 0.00015174 -0.00079682 -0.00082119
235 1 35.580687 26.085798 26.093402 -0.03282333 0.01837603 -0.03520491 -18201.98994215 -21396.93021632 398.05693987
236 1 35.539663 32.880620 1.911187 0.03803133 -0.02819448 0.02510776 0.00026659 0.00004150 0.00042122
237 1 4.262060 7.476043 29.628983 0.02221101 0.05030334 -0.04162394 0.00004642 -0.00012494 -0.00010055
238 1 20.011323 28.431640 28.350310 0.01673710 0.00944800 0.04509302 14.29364229 16.69632370 1.31371070
239 1 24.890932 7.819898 26.282656 -0.00660095 0.01358584 -0.01625110 -0.00005043 -0.00010602 -0.00013434
240 1 24.697203 0.769244 25.008714 -0.04126113 -0.03992820 -0.00947049 129670019.12694278 -11741648.32602707 -32710500.47654229
241 1 0.181506 14.051418 33.505702 0.00492255 0.00300056 0.02898349 6.51103542 80.59452416 -1.93980705
242 1 35.300754 33.368610 23.727794 -0.03337045 0.00633890 0.02448085 -0.00063799 0.00012663 0.00101721
243 1 34.684469 5.945134 20.814030 0.01672688 0.01176135 -0.04183127 -0.00026053 -0.00081166 -0.00013707
244 1 34.979248 19.214445 25.440620 -0.02746180 -0.07202332 0.00120509 0.00050695 0.00017198 0.00027722
245 1 30.386472 31.531240 2.133018 -0.01106006 -0.01428028 0.02639074 0.00016189 -0.00009960 0.00008376
246 1 21.244882 12.781074 34.071078 -0.00289859 0.02724683 0.02606795 -0.00007263 0.00002144 -0.00005032
247 1 8.637139 32.192142 25.188792 -0.03954343 0.05898818 -0.00512909 0.00009569 0.00013683 0.00006793
248 1 1.592998 18.959361 21.774345 0.01909478 -0.00622597 -0.01309424 0.00001835 -0.00004057 0.00065830
249 1 19.590486 19.829132 31.680459 -0.00848018 0.06730772 0.02232664 0.00030247 -0.00123923 0.00199284
250 1 31.439268 8.942621 24.234200 -0.00533186 -0.00886170 0.01419816 -0.00012806 0.00028044 -0.00005485
251 1 17.143729 7.611367 9.537597 -0.02342587 0.00720494 -0.03070942 -0.00087703 -0.00101743 0.00186519
252 1 14.826926 0.330135 8.574244 -0.02087041 0.06404122 -0.00310513 -0.00004409 -0.00001545 0.00001716
253 1 26.354353 12.326891 25.220743 -0.03443602 -0.03545211 -0.03179622 -4.08238398 -2.04710875 -0.66519629
254 1 15.162888 5.157273 25.105167 -0.02698521 -0.01311094 -0.00264840 -0.00004243 -0.00000170 -0.00001124
255 1 23.279145 30.160790 6.624046 -0.01256025 -0.04643016 0.03835697 0.00004081 -0.00008608 0.00016384
256 1 29.022430 31.982928 33.100841 -0.02437488 -0.00558724 0.04082921 -0.94928320 -0.41645072 -0.96681039
257 1 20.518141 18.934055 12.089254 0.02254160 -0.03027348 -0.03547881 -0.00005803 -0.00007326 -0.00024602
258 1 33.310251 25.529018 21.449849 -0.00997102 -0.01334612 0.01570931 -0.00013713 0.00013539 -0.00011568
259 1 31.933321 1.383171 23.440180 -0.01813603 0.00113488 0.00081595 107387.06716544 -205424.73417838 -296523.06122413
260 1 30.666633 0.858095 34.803877 -0.02046008 -0.00301939 0.01204063 -0.00033586 0.00066191 0.00013635
261 1 8.794708 22.208236 3.736217 0.03802604 0.03258918 -0.02364283 -0.00024073 0.00029495 -0.00026024
262 1 6.199840 23.669806 16.659051 0.03728015 -0.00787414 -0.00553272 -0.00006647 0.00011313 -0.00015779
263 1 23.152914 22.151107 15.833079 0.01827883 0.01298996 0.04768240 2301265.13462408 1811226.13684547 5021702.27312663
264 1 29.999593 27.624018 21.197098 0.01795865 0.01536100 0.01067989 3838258.66969142 966448.66211435 -4413277.11652515
265 1 36.086868 25.582408 19.864879 -0.02107005 -0.04718738 0.04018406 0.00013567 -0.00007941 0.00007635
266 1 20.658052 3.838403 17.816240 0.00608919 0.04495384 0.03298880 -0.00001053 -0.00019318 -0.00000051
267 1 9.300620 32.073214 9.942064 0.00632680 0.00884772 0.02139617 0.00008336 0.00006557 0.00012836
268 1 32.739049 3.749848 3.843936 -0.02851167 0.01452661 0.05240859 0.00017597 -0.00008234 -0.00014229
269 1 25.321156 11.650867 31.640239 -0.00435079 0.06693891 -0.01880380 -0.00014680 -0.00013506 0.00013076
270 1 35.089645 17.860507 3.233803 -0.01820825 0.01088489 -0.03614034 0.00022212 -0.00009674 0.00007122
271 1 10.995780 12.159305 25.768293 0.02141004 0.01235957 -0.02739483 -0.00016260 -0.00020933 0.00018249
272 1 0.815759 5.904343 3.077985 0.04064492 -0.02438970 0.06492278 -0.00001857 -0.00015778 0.00006201
273 1 7.616896 17.170742 32.401420 -0.00354203 -0.05920841 0.05385736 0.00013497 -0.00014828 -0.00002738
274 1 24.461359 3.504527 31.859500 -0.00571583 -0.01190323 -0.03198403 1182.86307622 2056.96077503 -3557.37914896
275 1 3.521983 15.337497 4.698742 -0.04451148 0.02370857 0.02407085 -0.00014349 0.00014138 -0.00020461
276 1 29.142012 4.729369 17.217412 -0.01290731 0.01339674 -0.01411086 0.00001492 -0.00026363 -0.00014206
277 1 28.653981 2.107542 8.259692 0.02674020 -0.04192206 0.01277869 0.05575595 0.03759908 0.07436555
278 1 16.903104 1.123213 23.606001 -0.04096557 -0.00698410 0.04754404 0.00006521 -0.00006248 0.00010985
279 1 10.628899 29.199403 23.919847 0.01456476 0.06162871 0.05531068 -0.00003476 0.00005036 0.00001419
280 1 33.981180 32.552693 8.931891 0.00195960 0.02621409 -0.00483744 -0.69158903 0.24097991 -1.05365911
281 1 1.868604 27.003793 23.743379 0.03946182 0.02485193 0.02168791 1.51201383 5.53862824 -3.21516330
282 1 19.037818 25.990339 34.926532 0.02896752 0.00402771 0.01468392 -0.00028586 0.00005744 -0.00009682
283 1 0.053676 21.644106 6.305486 0.01009825 -0.00939612 -0.01692185 0.00000163 0.00013285 -0.00003418