ITEM: TIMESTEP
0
ITEM: NUMBER OF ATOMS
4859
ITEM: BOX BOUNDS pp pp pp
0.0 39.895521
0.0 39.895521
0.0 39.895521
ITEM: ATOMS id type x y z vx vy vz fx fy fz
1 1 6.221917 22.473494 15.004558 0.01033365 0.05193108 -0.01160018 -0.00011783 0.00000593 0.00007761
2 1 0.742576 36.580160 4.204404 0.00247774 -0.03118191 0.05706784 0.00001962 -0.00010767 -0.00017991
3 1 30.147317 39.418833 22.754356 -0.04197297 0.04471866 -0.00393300 0.00007253 0.00009303 0.00003570
4 1 36.975399 10.213965 32.111018 0.03242009 0.02774952 -0.00630478 0.00003836 0.00008199 -0.00013314
5 1 23.942521 36.996280 29.553694 0.00558072 -0.03649339 0.01494267 0.00002942 -0.00000505 0.00019536
6 1 35.549985 38.932394 4.222773 -0.01447689 -0.00853932 0.02385580 0.00007515 -0.00005342 -0.00001155
7 1 5.355057 39.464082 21.541366 -0.02965817 -0.07001145 0.00012721 0.00000064 -0.00016661 -0.00003394
8 1 3.458337 35.113601 11.946860 0.00254764 -0.01150775 -0.04461326 8300.34212722 81519.58406936 -1411.12028222
9 1 12.206236 8.839103 28.655858 0.01831560 0.02124602 0.05796054 0.00012721 -0.00006100 0.00007717
10 1 26.847750 26.344207 3.079051 -0.04352052 0.03453255 -0.00451414 -0.00008319 -0.00018659 -0.00004584
11 1 18.327254 5.817289 15.224382 -0.01929568 0.02032087 -0.01069105 -47.98975761 16.94615427 18.91295772
12 1 22.337616 32.074919 19.988858 -0.00111249 -0.02572493 0.00064387 0.00012754 0.00002869 -0.00008566
13 1 23.297327 35.565806 3.086598 -0.05454488 -0.00594311 -0.03075581 -0.00016480 -0.00011348 0.00006710
14 1 4.600724 24.302517 1.357295 0.03237257 0.01750961 0.04510931 0.00006115 -0.00008189 -0.00004406
15 1 35.210352 20.769563 19.323696 -0.01746493 0.00455453 -0.00557739 -0.00005918 -0.00009104 -0.00000335
16 1 12.278982 21.767058 5.579677 0.03024628 0.04442262 0.00930602 0.00012042 -0.00013586 -0.00018910
17 1 24.647804 14.511621 27.534542 -0.02576099 0.01732153 0.02079085 -0.00014435 -0.00002245 -0.00009192
18 1 17.496061 13.681076 8.720405 0.00507617 -0.02077576 -0.05267102 0.00000362 0.00003773 0.00002118
19 1 26.314586 28.805496 36.953397 0.01872280 -0.01883041 -0.00008723 0.00006966 -0.00001742 -0.00006180
20 1 3.085087 24.560044 5.428780 0.05261864 -0.00700156 -0.02108833 0.00000909 -0.00003220 0.00007375
21 1 35.719223 15.263557 20.690413 0.03673056 -0.00203707 0.03077935 -0.00002177 -0.00009646 0.00012918
22 1 36.614570 13.511196 21.066964 -0.02473697 -0.02381776 0.03486364 0.00009397 -0.00006699 0.00000098
23 1 23.313234 27.778523 35.752338 0.00928767 -0.00428063 -0.00686560 0.00003892 -0.00000195 0.00007162
24 1 31.401263 22.256074 25.882045 -0.04972095 0.00430534 0.02408484 -0.00002503 0.00009939 -0.00015085
25 1 36.921974 36.034260 22.111467 -0.03550597 0.04323929 0.04988589 16949.76760293 -38362.94422254 -68639.27393664
26 1 24.260214 8.896503 22.253673 0.00003906 0.03572945 0.00122772 0.00025082 -0.00007497 0.00009332
27 1 38.823274 3.653805 18.728190 0.00046719 -0.05255426 -0.01627732 -0.00003099 -0.00002354 0.00005141
28 1 10.188856 25.502109 21.360240 -0.00581816 0.04484466 0.03090725 0.00008886 0.00006524 0.00006446
29 1 34.769209 0.297557 35.157530 -0.04596396 0.01369770 -0.00866290 0.00016570 -0.00005122 0.00001403
30 1 2.597972 16.217324 3.173843 -0.04121240 0.02540416 0.01944359 -0.00013372 0.00003834 -0.00008543
31 1 23.321287 8.127393 22.695689 0.01125718 0.01111182 -0.02967248 -849078.73079522 74709.25382583 -459671.23303513
32 1 15.908383 0.018752 27.617705 0.03019645 0.00195515 -0.00205101 -0.00014246 -0.00009047 -0.00006417
33 1 34.758726 1.985384 35.900399 0.01852813 -0.03705937 -0.01209626 0.00006804 0.00010252 0.00000581
34 1 24.397295 29.428072 33.038421 -0.02722668 -0.00402684 0.03935139 -0.00001488 -0.00007161 -0.00009233
35 1 12.838124 38.208417 28.883467 -0.02179780 0.02974125 0.01144506 15.20587922 -4.34277809 -9.02165269
36 1 32.345667 5.025579 26.995649 -0.02630725 -0.05039727 0.03397439 -0.00007530 -0.00001067 -0.00005415
37 1 11.065136 38.717048 21.910299 0.04006210 -0.02805696 -0.00481013 2895.85715941 718.99303806 -2575.83630990
38 1 36.833272 8.793791 12.482628 -0.04193405 -0.00795122 0.04689417 0.00017259 -0.00007825 -0.00012430
39 1 37.413581 5.921757 34.300254 -0.03118095 -0.00783361 -0.03060818 -0.00006231 0.00002241 -0.00013862
40 1 6.687596 16.424862 21.291869 -0.03375730 0.00597176 0.02651999 0.00011284 -0.00014411 -0.00022140
41 1 2.823630 30.151756 16.029904 0.02289140 -0.04631072 -0.03632498 -0.00006916 0.00003635 -0.00003281
42 1 14.673108 38.249119 29.647349 -0.00869930 -0.00124418 0.04405808 -3.81212429 -0.08452820 -1.58699536
43 1 15.547803 19.861732 32.556096 -0.07717165 -0.00158584 -0.07031456 0.00010572 0.00005098 0.00004975
44 1 4.649077 2.968582 5.857527 -0.02536642 0.00297719 0.03828582 -0.00008426 -0.00005217 -0.00004342
45 1 9.873918 11.059131 12.429216 -0.02322985 -0.02121920 0.04748125 -0.00000673 0.00011174 0.00003504
46 1 6.751520 5.602398 39.111280 -0.03659206 -0.02161142 0.00219595 0.00004536 0.00016577 0.00013170
47 1 34.881264 6.120148 16.143141 -0.01364931 0.00343877 0.01244046 -0.00003262 -0.00013658 0.00013933
48 1 7.577062 23.290262 16.473913 -0.01051478 -0.08455451 0.02393132 -0.00009364 0.00003008 -0.00000340
49 1 2.934584 23.124626 38.667495 0.01920892 0.03492265 -0.00927270 0.00003859 0.00005837 0.00001006
50 1 11.681746 16.703643 15.731532 0.01904465 -0.01928525 0.01880370 0.00019476 -0.00001624 -0.00007742
51 1 29.913139 12.535538 21.835981 -0.00753329 0.03515331 -0.01662364 -64.57322491 35.18834573 84.28151843
52 1 35.105122 11.103783 28.508509 -0.06533229 -0.03255818 0.04025720 -0.00004242 -0.00009654 0.00005828
53 1 13.832043 11.204424 32.275196 -0.05079607 0.03562857 0.03797783 0.00001742 0.00012003 -0.00012133
54 1 26.371906 32.557793 7.273422 0.00276661 -0.00441795 -0.01578999 0.00016453 -0.00020494 -0.00010886
55 1 1.746780 36.473955 17.449674 -0.00143622 0.00869981 0.00579850 -0.00004904 -0.00000805 0.00020117
56 1 22.046005 16.813710 5.374042 -0.04463111 -0.00219911 0.01123100 0.00015545 0.00003033 -0.00011243
57 1 3.928219 18.506084 2.894648 0.07544937 -0.03352791 -0.00415069 -0.00013398 -0.00008310 -0.00003901
58 1 10.809523 10.162246 25.922897 -0.01773606 -0.00137675 0.03845157 0.00004851 -0.00008882 -0.00012281
59 1 2.990619 28.270168 2.283136 -0.03251548 0.01789350 -0.01678903 -0.00003079 0.00021802 0.00002483
60 1 29.125090 1.513352 32.213919 0.04996704 -0.00619197 -0.02712456 277.71209108 -1092.93801031 -942.25380380
61 1 29.300109 27.910384 10.079961 0.00559765 -0.00954793 0.08160910 0.00003339 0.00015263 -0.00005628
62 1 3.790259 23.490682 2.495187 0.00268104 0.01307695 0.00516982 -0.00005788 0.00002954 -0.00003280
63 1 32.836485 22.828935 24.866839 0.00934788 0.01963357 -0.00290856 -0.00015261 0.00011589 -0.00012935
64 1 4.929117 32.429467 4.165641 -0.01522295 0.00531611 -0.00360332 -0.00001624 -0.00007184 -0.00013105
65 1 27.080192 1.925109 30.088460 0.02099432 -0.01199063 -0.01696058 0.00423712 -0.00072434 0.00426916
66 1 38.415721 31.548194 33.402583 0.00406030 0.01405091 -0.04219988 0.00018619 -0.00006064 0.00010324
67 1 8.301137 11.376357 15.497278 -0.02318271 0.01326624 0.02105066 0.00033631 0.00003939 -0.00008571
68 1 18.064647 6.820104 34.271993 0.01327387 0.05981066 0.02610654 0.00010203 0.00001335 0.00013702
69 1 26.926747 33.514870 4.183241 -0.04262545 -0.01716926 0.01546150 -0.00005924 0.00003333 0.00006249
70 1 14.240220 9.570742 6.168896 -0.02631305 0.00433887 0.05523858 -0.00000333 0.00000480 0.00003098
71 1 21.772515 36.642153 9.049221 0.00134880 0.03976800 -0.00244015 -0.00011322 -0.00012732 -0.00020678
72 1 20.705276 14.673394 4.435347 0.00078301 -0.01053393 0.04124294 0.00000229 0.00009436 -0.00001729
73 1 17.945102 35.206152 0.210235 -0.00733229 0.04051910 -0.00239851 42.01397381 -131.42101005 5.91243722
74 1 7.323776 2.544043 37.692612 0.01928719 0.06696434 -0.03355897 0.00005937 0.00003852 0.00006478
75 1 37.613454 4.430036 35.929276 -0.03945110 0.03285154 0.01514607 -0.00002533 0.00005631 -0.00003574
76 1 19.330345 34.800188 10.300048 0.00190057 -0.06320160 -0.01607073 0.00008341 0.00008292 -0.00003211
77 1 35.784584 30.466748 21.404370 -0.05468850 -0.01250063 0.00591583 1344.89956645 -3972.29481718 -449.55284453
78 1 36.198079 39.723312 15.987403 -0.01918040 -0.03750482 -0.00905597 557.61691221 13999.59617886 14310.85137586
79 1 13.201390 28.389112 15.485909 0.01660654 -0.00656828 0.00194489 -0.00003971 0.00001544 0.00000280
80 1 8.570190 30.734655 0.731799 0.04030126 -0.00324060 -0.02542163 -0.00000016 0.00011050 0.00003532
81 1 19.701959 37.973864 6.107513 -0.02922812 -0.01682042 -0.01159493 0.00009732 -0.00009005 0.00003943
82 1 13.735020 9.325580 37.980469 0.00844466 0.00134121 0.02279929 -0.00004607 -0.00002652 -0.00001053
83 1 30.224955 32.327245 18.062064 0.00439227 0.08063725 -0.03906986 0.00004195 0.00002429 -0.00002021
84 1 4.302475 6.253587 6.308283 0.00112883 0.01667250 -0.00238242 -0.00005914 0.00013180 0.00003353
85 1 11.944356 19.404411 29.293694 0.00318618 0.01032232 -0.01772610 -0.00011802 -0.00004640 0.00022602
86 1 15.425399 9.838778 30.078914 -0.00029003 -0.03996561 -0.03518217 0.00000751 -0.00005899 0.00000830
87 1 13.081876 37.006904 21.247066 -0.04364953 -0.03748787 0.00401331 -0.03094971 0.02594792 0.01007502
88 1 24.363030 26.170169 38.757427 0.04053765 -0.00172711 -0.03966011 0.00001951 -0.00015642 0.00006241
89 1 11.733359 38.547760 10.411410 0.04117040 -0.02114170 0.01004537 70501.45097237 -31660.71169841 16967.29341751
90 1 25.316081 17.922461 8.842929 -0.00495336 0.00548857 -0.01674836 0.00014278 -0.00006707 -0.00002487
91 1 26.880748 28.219529 6.192406 0.02175811 -0.05209717 -0.01231519 0.00000147 -0.00005327 0.00016243
92 1 4.498803 26.085880 18.955421 0.03556298 0.00679383 -0.00603125 -0.00002517 -0.00009521 -0.00003763
93 1 31.475265 6.166453 18.334888 -0.04162549 0.02605566 0.03369023 -0.00006840 -0.00000429 -0.00005512
94 1 24.584526 21.761968 24.491885 0.04816435 -0.00307176 -0.03011022 -0.00007229 0.00013360 0.00013235
95 1 6.200268 33.850043 15.373718 -0.04426639 -0.02571190 -0.02929643 0.00046521 -0.00021689 0.00056735
96 1 14.341479 1.621251 31.361732 -0.00722911 -0.03137915 0.04791053 0.00036177 0.00090160 0.00054840
97 1 13.850401 6.276061 33.353311 0.02753934 0.04722209 -0.00342384 0.00014631 0.00002024 0.00009423
98 1 9.343995 28.262425 24.560933 0.00935214 -0.01466754 0.03336371 -0.00017143 0.00009993 -0.00000784
99 1 38.530396 34.053667 14.452552 -0.03365387 0.00695119 -0.01607967 -0.00019988 -0.00000616 0.00016128
100 1 39.268351 33.421297 22.963533 0.02531022 0.02431057 0.01468598 0.00214931 -0.00140538 0.00072552
101 1 11.848516 12.242365 8.799601 0.03669472 -0.02415516 -0.00107525 -0.00012459 -0.00007327 0.00008713
102 1 9.582853 9.103531 10.522624 0.03294121 -0.00788619 -0.01614759 -978.29664676 648.61230366 4658.91902679
103 1 35.709646 13.809733 29.007583 0.01642753 0.00232131 0.00047311 0.00013733 0.00005756 0.00021039
104 1 17.780747 19.493685 3.389811 -0.01309110 -0.02691334 -0.00572718 -964239.35352504 -453942.31041901 5461160.03265822
105 1 37.634744 12.042958 15.096003 -0.02947784 0.02928320 0.04339135 -0.00009784 0.00023989 -0.00014106
106 1 5.599779 31.637661 23.598838 0.01360774 0.00853911 0.00841603 -0.00002609 0.00003672 0.00008564
107 1 0.320421 1.078808 19.706993 0.01457472 0.01991883 -0.03583419 -0.00003998 -0.00003725 0.00005153
108 1 21.703416 0.329032 17.230479 0.05359216 -0.01277363 -0.00100662 0.00004364 -0.00011243 -0.00019398
109 1 11.790411 11.765501 25.349355 -0.00142618 0.02944913 0.05848457 -0.00002395 0.00006022 0.00004051
110 1 3.824947 19.932808 8.218590 -0.05366739 0.01280568 -0.00260139 0.00000016 -0.00003660 0.00018674
111 1 13.265644 31.395589 35.260475 -0.01170491 0.00711513 0.02761614 -0.00004288 0.00006647 0.00013921
112 1 19.443780 39.072914 31.148246 0.01334706 -0.06260968 -0.00401851 -0.00014002 0.00007558 0.00007003
113 1 7.258412 20.531176 35.377210 0.01434170 -0.02712343 0.00734768 0.00017960 0.00005622 0.00002760
114 1 34.014914 7.322176 13.143045 0.03505923 0.00796672 -0.09165638 0.00001907 0.00002455 -0.00017720
115 1 15.865171 37.617180 24.465569 -0.02816213 -0.03285805 -0.03588568 0.00017973 0.00006546 -0.00021478
116 1 24.028545 1.963557 20.399905 0.01231105 -0.04240937 -0.05586201 1145.37885517 643.69582353 -508.31773319
117 1 10.728493 36.298564 13.007115 0.04193026 0.03036195 0.00414708 -0.00057479 -0.00153873 0.00181194
118 1 29.734217 5.940655 0.055027 -0.00495186 -0.00298524 0.01807747 -0.00000910 -0.00008112 -0.00006277
119 1 25.687054 23.961784 15.600125 -0.01314845 -0.01357071 -0.01118730 -0.00004091 -0.00000351 -0.00010660
120 1 32.281982 22.133653 27.178894 0.00271028 0.01097415 0.02755329 -0.00016198 -0.00001686 0.00009889
121 1 1.278277 32.810152 3.170189 0.05287208 0.03613940 -0.03144181 17.01616094 16.69698840 -16.53419315
122 1 23.267360 4.175920 8.865596 -0.01194934 -0.03708745 -0.02445722 0.00009935 -0.00001591 -0.00001472
123 1 32.903046 37.048272 10.064765 -0.05838853 -0.03607992 -0.04323226 0.00001564 -0.00007248 -0.00000201
124 1 38.103579 30.597104 33.296103 -0.02317534 -0.03735298 -0.02435660 0.00002398 -0.00012191 -0.00021244
125 1 6.133582 13.464158 26.089601 0.00613382 -0.01012190 -0.03939756 147.84817899 146.58781494 270.34807756
126 1 20.805564 7.954969 0.261639 0.03857337 -0.00519722 0.02557951 0.00002630 -0.00004331 -0.00002836
127 1 16.114725 20.181078 27.326910 -0.03827445 0.01821534 -0.00365493 0.00002214 -0.00007234 0.00004654
128 1 19.049726 28.251542 27.272190 -0.04502341 -0.00256686 -0.02484375 0.00009275 0.00003075 0.00004362
129 1 37.927129 19.179556 32.394451 -0.03694901 0.04441469 -0.00859331 -625496.28625340 805124.49875292 1948336.97383940
130 1 34.596222 10.806614 4.892575 0.00512126 -0.04932822 0.01417384 -0.00005575 -0.00005386 0.00001432
131 1 13.991738 19.469576 7.885630 0.01242203 0.01731675 0.02360277 -0.00001108 0.00021837 0.00003699
132 1 6.598806 13.436347 14.850581 -0.01390938 -0.03509941 0.02242936 -0.00007188 -0.00005124 -0.00002125
133 1 38.187405 13.881953 38.728446 -0.07263952 0.00035139 0.01238049 0.00000012 -0.00016627 0.00001013
134 1 15.509699 39.771778 39.462065 0.00861403 0.02847595 0.01533284 -0.00006609 0.00012040 -0.00004616
135 1 34.408151 20.628733 23.650796 -0.03615320 0.01977364 0.00499290 -8619.08343949 -300590.65262282 -950932.27746349
136 1 21.186066 12.772548 2.542683 0.01438713 0.01041208 0.01254666 -0.00007926 -0.00009289 0.00000791
137 1 18.585929 7.319746 16.737319 0.01546143 0.04414603 0.00082808 -0.17476674 -1.01475912 -1.02182863
138 1 33.896696 32.009179 1.530925 0.03049639 -0.00620822 0.07185975 0.00001981 0.00004973 -0.00013033
139 1 24.334279 23.786191 34.807831 -0.01671067 0.06550829 -0.01954924 0.00007523 0.00000680 -0.00008994
140 1 37.999269 6.377340 7.551152 0.00038452 0.05613377 0.04179213 0.00007046 0.00004544 0.00006959
141 1 5.305627 12.780615 13.307821 -0.04083614 -0.00664189 0.03185900 0.00010433 0.00011439 0.00016504
142 1 3.785768 32.200583 28.460384 -0.00090242 -0.03525020 -0.03095077 0.00002307 -0.00001497 0.00005884
143 1 38.916157 27.828213 11.907356 0.02426424 0.03422943 -0.07198460 -8487990.33631595 -7937166.41261011 16408785.22669997
144 1 38.695718 16.098668 22.409140 0.06198441 -0.01646516 -0.03115543 -3.32001760 -3.06212028 -23.27985756
145 1 13.945982 27.845281 3.277605 0.01624612 -0.02306772 -0.01257669 -0.00013318 0.00012300 0.00024251
146 1 14.072090 12.071778 27.216759 0.02785177 -0.01109849 -0.01722811 0.00004011 0.00008858 -0.00004115
147 1 20.793520 12.837656 23.811958 0.01691828 0.03696600 -0.00076887 -0.00005097 0.00025527 -0.00002282
148 1 29.323409 1.806080 10.701827 -0.00533454 0.00599326 0.00361600 0.00001117 -0.00009368 -0.00002846
149 1 28.576370 1.889657 4.590887 0.00443584 -0.00597313 0.05915507 0.00019342 -0.00005992 -0.00002427
150 1 26.920397 24.589525 3.511908 0.01673037 -0.04674428 0.01311949 0.00019695 -0.00005574 0.00002737
151 1 2.371769 28.529318 17.102387 -0.00273933 -0.01432295 0.05246917 0.00008128 0.00010828 0.00020361
152 1 32.919082 20.760867 27.052857 0.01226023 -0.01045063 -0.00254647 -0.00091176 0.00014687 0.00204748
153 1 7.558040 3.062165 6.844364 -0.03636485 -0.02137937 0.02584849 0.00005391 0.00000388 0.00015712
154 1 21.154808 12.419915 32.084689 0.01491517 -0.01758950 0.01803411 -0.00003835 0.00002482 -0.00006487
155 1 0.897051 18.786833 36.892028 -0.04711624 0.02857833 -0.00078294 0.00029044 0.00001765 0.00019371
156 1 14.810726 22.628674 29.994277 -0.08461083 -0.05698892 -0.05701011 0.00005816 0.00009251 0.00009292
157 1 37.237996 20.216012 6.452099 -0.07714580 -0.00147525 -0.00045053 -0.00013611 -0.00000738 -0.00001469
158 1 5.885005 17.243795 24.585024 -0.00419614 0.01862052 0.01481982 -0.00015003 0.00144818 -0.00063079
159 1 10.227485 39.395560 8.261679 0.01347609 -0.02670231 0.01183441 0.01862561 -0.01038571 0.02642703
160 1 24.926115 34.647910 0.302157 -0.03587546 0.02068375 -0.05730043 0.00007129 0.00003835 -0.00017742
161 1 35.196961 24.867973 37.205926 0.03842655 -0.00349546 -0.01631464 -0.00000655 0.00000846 0.00001221
162 1 39.172156 27.022323 12.465767 0.03989488 0.06270084 0.02045854 -7104.90130672 22366.39363026 -15497.97752910
163 1 20.744331 21.422390 28.463993 -0.03067165 0.01172269 -0.00398731 0.00004120 0.00016613 0.00012840
164 1 37.461509 8.391108 16.233507 0.02811743 -0.02376249 -0.00070475 -0.00006662 0.00006913 0.00000551
165 1 6.572344 20.911112 4.613184 0.01944449 0.02512004 -0.01966926 -0.00012983 0.00011188 -0.00002984
166 1 35.928867 6.212261 17.851915 0.00792505 -0.02482258 0.03459362 0.00002287 -0.00001082 0.00000087
167 1 18.964582 33.951569 0.914626 -0.01330559 0.04927724 -0.01695179 -11.75050017 14.46023548 -8.11869068
168 1 31.224437 33.621425 0.971796 0.00950762 -0.03197720 0.00762864 0.00014020 0.00013193 -0.00002257
169 1 8.315307 19.024573 38.316288 -0.01978029 -0.00036775 0.00191561 -2042579.89055939 1306404.96410969 17401.22054632
170 1 19.469217 13.386138 36.326270 0.02957193 -0.01613713 0.02308777 -480.87829007 1260.12687584 -117.49634402
171 1 36.380036 33.017976 31.510186 -0.01503908 0.01766607 -0.02167193 -0.00011209 0.00006102 -0.00011012
172 1 5.866730 8.439934 39.620921 -0.01109258 -0.04129869 -0.01279315 -0.00000174 -0.00002748 0.00007891
173 1 14.044176 10.928524 24.802942 -0.00541310 0.04113176 0.03415927 0.00002109 -0.00000001 -0.00005522
174 1 10.681373 31.082227 27.006547 -0.00871216 -0.04490500 0.01469426 -0.00001481 -0.00010902 0.00001886
175 1 18.151987 14.942560 19.286510 -0.04357086 0.03981783 0.03211422 405.18798238 1053.33174106 -518.44348710
176 1 28.028928 27.368051 21.463920 -0.05283572 0.01981516 -0.02269434 -0.00004716 0.00012514 -0.00010946
177 1 3.039364 7.883823 37.403011 0.02765761 -0.01806946 0.04179895 -0.00001133 -0.00007113 -0.00005192
178 1 13.199051 34.504361 13.862192 -0.00679040 -0.04077599 0.02762336 0.00014459 -0.00018828 0.00013830
179 1 34.135898 4.694566 12.001824 0.01436630 -0.01315276 0.09571397 -0.00002791 0.00019032 -0.00008925
180 1 16.566833 17.354840 23.185265 -0.05963557 0.04479884 -0.01258713 -0.00017704 0.00010856 0.00074689
181 1 4.387815 21.245281 30.720376 0.08028004 0.00967664 -0.02209480 0.00011606 -0.00001018 0.00010450
182 1 0.242892 5.058111 39.119896 -0.01195232 -0.06176802 0.03782927 32.72306431 313.59170493 65.20577681
183 1 35.022472 26.528365 1.766639 -0.00701278 0.06346832 -0.03801001 -0.00004555 -0.00003502 0.00002868
184 1 22.684599 31.481119 19.221153 -0.02243536 0.04531596 -0.00207422 -0.00005078 -0.00003600 0.00015251
185 1 26.000147 2.164755 20.147657 -0.01447795 0.02193596 -0.01126408 -3.81618590 -0.38939912 0.48824933
186 1 31.437021 23.876939 23.586563 -0.05300326 -0.02546722 -0.02437951 -0.00064610 0.00068177 -0.00021181
187 1 32.554913 6.235386 8.227953 -0.00577466 -0.01584569 0.02099003 0.00005926 -0.00009795 0.00003217
188 1 23.733677 23.666709 1.763888 0.02400777 -0.04695880 0.00799991 -0.00006554 -0.00010957 -0.00010945
189 1 21.687394 0.806444 14.625957 -0.04382420 -0.02232073 -0.00407703 -2024.89771107 -36908.62269840 9323.18484151
190 1 6.230737 37.662697 34.141650 0.06041934 -0.01838807 -0.03275711 -0.00005935 0.00000592 -0.00002378
191 1 21.947551 4.913678 15.024633 -0.00813387 0.01436132 0.00506377 0.00212051 0.00082333 -0.00009736
192 1 3.505508 25.931291 8.917980 0.02330595 0.02201373 0.05181552 0.00017253 -0.00015149 -0.00020124
193 1 35.737750 35.528907 15.752544 -0.00813738 0.00189246 0.01740185 -0.00016058 -0.00105434 -0.00010933
194 1 11.944774 35.089322 14.022490 -0.06822762 -0.00783254 0.00641462 0.00012271 -0.00014879 0.00025593
195 1 35.996352 29.300108 7.056651 -0.03332842 -0.00899585 -0.00786116 -0.00023059 -0.00000281 -0.00013838
196 1 8.997310 28.951858 30.015765 -0.05537773 -0.02326961 -0.03075797 -0.00014957 -0.00005670 0.00017167
197 1 14.530776 8.314848 27.095471 0.04941292 0.00866401 0.02859546 0.00001671 0.00002551 0.00003405
198 1 7.329680 13.771892 24.522729 -0.01576499 -0.04274278 0.01223662 -2.36107371 -0.60733756 3.09287321
199 1 30.070277 36.508549 24.803996 -0.00546542 -0.01679040 -0.04865664 -0.00002034 -0.00002549 0.00007943
200 1 5.055673 13.968058 33.733123 0.01378389 -0.01644800 -0.01892276 -0.00012813 -0.00013162 -0.00005399
201 1 14.570125 28.154985 23.327105 -0.03620095 0.01572765 0.00577343 0.00007541 -0.00017670 0.00003196
202 1 6.360957 18.088481 9.534121 0.02847716 -0.04671487 -0.04418850 0.00011737 -0.00009793 0.00001453
203 1 9.148901 2.497731 14.634590 0.03443393 0.00227619 0.00369228 0.00007731 -0.00012373 0.00013942
204 1 22.563488 15.047042 39.546006 -0.05146170 -0.04158961 -0.04423624 0.00039353 0.00006935 0.00036718
205 1 10.565545 5.570707 15.063134 -0.03068714 -0.05917032 0.05054461 0.00018939 -0.00022279 0.00005578
206 1 1.646193 20.563682 27.698433 -0.00183992 -0.00397976 0.07467052 0.00011812 0.00004523 -0.00009343
207 1 30.889294 6.126700 32.631642 0.02509457 0.01326033 0.05063239 0.00012676 0.00023064 0.00004839
208 1 18.669840 31.531120 3.840967 -0.04187054 0.01102229 0.02239256 -0.00002717 -0.00029446 0.00011743
209 1 18.472682 12.567038 17.846050 0.02253934 -0.03765082 -0.00303341 -0.00297072 0.02240076 0.01359834
210 1 39.529717 32.827869 15.348137 0.02923806 0.03573649 -0.04661068 -0.00007873 -0.00010677 0.00006450
211 1 36.836846 25.856625 19.993403 0.00249411 0.00139818 -0.01405157 0.00025217 -0.00029885 0.00004043
212 1 32.285407 0.637859 33.774997 0.04357017 0.00867297 0.01935351 0.00222088 -0.00077538 0.00125240
213 1 17.548089 16.456104 36.734834 0.00874595 -0.02171985 0.02755658 -0.00112951 0.00201724 0.00006258
214 1 22.956301 0.234905 24.679094 -0.03647618 0.01990512 0.04965988 -73551.40620805 -113073.31940454 45402.64475030
215 1 29.055842 16.938766 26.672372 -0.01929577 -0.00805654 0.00348816 -0.00004040 0.00004183 0.00025389
216 1 34.590753 25.129043 4.069289 0.04884317 0.06800440 0.02314147 0.00012702 -0.00003854 -0.00006762
217 1 38.180570 32.307185 19.163021 0.00672431 0.02691055 -0.02550792 0.62192564 -0.24150150 -0.35603451
218 1 25.397577 16.795341 33.684484 0.05126098 -0.02882887 -0.00608556 0.00005486 0.00002120 -0.00002532
219 1 3.792593 33.777854 23.003710 -0.02876564 0.00705522 -0.01689493 -0.00001678 0.00010087 -0.00001081
220 1 17.498404 24.124746 36.423964 -0.02363074 -0.00286194 0.03267156 -0.00003687 0.00003117 -0.00005177
221 1 12.483930 38.221581 35.645250 -0.00116565 -0.01061131 0.02195839 0.00011014 0.00006519 0.00001995
222 1 15.178644 37.726839 4.840694 -0.01226323 -0.00649473 0.03756840 -0.00003758 -0.00000842 0.00006013
223 1 34.433799 31.362440 20.920704 0.00597737 0.01983441 0.00367351 28.10060186 -18.63451376 10.06247683
224 1 1.925282 30.652765 30.676562 0.03796461 -0.05625434 -0.00957991 -0.00012018 -0.00002671 -0.00021374
225 1 29.611419 21.548183 11.805588 -0.01821957 -0.01585521 0.02941996 -0.00012032 0.00006126 0.00006353
226 1 21.506349 24.451888 35.659345 0.00467651 -0.05249904 -0.00463867 0.00003935 0.00006531 -0.00000530
227 1 19.942286 1.955402 26.326400 -0.02322301 -0.02634411 0.02441216 -0.00164584 0.00092521 0.00085074
228 1 2.084837 13.380114 18.176974 -0.04119211 0.00413276 -0.04020851 0.00006879 -0.00010598 -0.00011718
229 1 24.195409 39.724585 20.579854 0.01452053 0.00726115 0.00564390 -0.11178764 1.43465100 -0.12164011
230 1 13.660464 33.109452 29.583765 0.01788178 -0.01473393 0.01604826 -0.00004232 -0.00015252 -0.00000622
231 1 14.468707 8.563250 27.679228 0.02690806 0.01549739 -0.02517293 -0.00005911 0.00001033 -0.00009609
232 1 15.288737 32.276801 19.040044 -0.08500889 0.02966129 -0.01289622 -0.00002862 -0.00004256 0.00001293
233 1 9.460610 37.670037 26.492512 0.00551737 0.02414067 -0.03249966 -0.00120502 -0.00036287 -0.00021813
234 1 20.656568 7.492437 14.713321 -0.05048087 -0.02285025 -0.01223599 -0.00883592 -0.00644018 0.00191961
235 1 12.453576 2.299786 27.094364 -0.01131268 -0.02902423 0.03855543 3.52351766 -5.80972255 -3.96754597
236 1 29.865486 10.222429 31.928804 -0.04703060 -0.03379375 0.03386959 0.00013696 0.00002559 -0.00003730
237 1 15.410971 36.331331 5.986914 0.00330378 -0.00381571 0.01635774 -0.00008989 -0.00005987 0.00006384
238 1 27.012592 23.633288 15.446955 0.00840861 0.02153830 -0.01853216 -0.00008194 -0.00004157 -0.00000713
239 1 17.242598 9.908153 17.008520 -0.02061231 0.04456004 -0.01800156 -0.00022607 0.00048193 0.00020258
240 1 10.277814 23.182902 31.853266 0.04334432 0.01146520 0.02391174 0.00006629 0.00001626 0.00010440
241 1 26.465984 2.917807 26.797103 -0.01107279 0.03050013 0.00574619 0.00022347 0.00024039 0.00013503
242 1 19.863658 9.618081 35.362414 -0.00392087 -0.03911879 0.03566683 0.00003586 -0.00157125 -0.00049337
243 1 14.638331 2.446939 38.147399 0.01857704 0.03203374 0.05297402 -0.00002523 -0.00000902 0.00006279
244 1 23.245889 7.624487 13.687330 -0.02872167 0.01814568 0.03319155 0.00038002 -0.00005414 0.00003185
245 1 11.346921 14.571282 7.838584 0.00189732 0.00781019 0.04454573 0.00022116 0.00001733 -0.00008108
246 1 17.104141 38.579880 33.174744 -0.01034710 0.01115594 -0.04096582 0.00001986 0.00023267 0.00002711
247 1 37.239641 16.947032 39.452769 -0.03670169 0.01670558 -0.02924529 0.00017746 -0.00011659 0.00004712
248 1 28.051329 39.033136 2.021527 -0.07967648 0.03408753 -0.01076173 0.00006180 0.00008651 -0.00009841
249 1 10.020381 13.655889 8.974697 -0.01922970 0.00147636 0.01315880 0.00008581 0.00038578 -0.00023081
250 1 6.003589 1.036147 7.988149 0.01310252 0.01713112 0.01180551 0.00021874 0.00003077 -0.00001766
251 1 38.859615 33.936441 0.988036 0.01164275 -0.02648050 -0.02199022 -0.00151471 0.00084035 -0.00165207
252 1 4.011103 38.080216 16.423123 0.05919472 0.01717877 0.04373894 0.00003071 0.00021555 0.00012659
253 1 19.255667 20.691688 4.068638 -0.00814987 -0.01788361 0.00264126 -2.47326740 -2.00902536 -1.13840241
254 1 39.600855 19.622209 37.310708 0.03234670 -0.04581152 -0.01698216 0.00009413 -0.00001551 0.00023910
255 1 4.877735 31.116418 3.429774 -0.03947589 0.03765827 0.00857999 0.00130789 -0.00069095 0.00015424
256 1 14.217146 0.228237 33.286417 -0.00677729 0.03044243 -0.01677852 -0.00007044 0.00026743 0.00071852
257 1 8.338561 38.885283 7.102790 0.01534148 -0.06161218 -0.01773706 -0.00035318 0.00026991 -0.00019879
258 1 12.707825 28.621630 14.896589 0.05602858 0.03598257 -0.04371257 0.00003605 0.00013228 0.00005474
259 1 9.110532 19.242469 15.407090 0.00455040 0.01815102 0.01481329 0.00023365 -0.00011257 0.00009466
260 1 9.644747 3.090833 6.590370 -0.04966405 -0.03046633 0.02668282 -0.00008657 0.00004603 -0.00010122
261 1 6.491832 28.170602 2.457408 0.01892841 0.00527163 0.00400522 -0.00009740 0.00011392 -0.00015576
262 1 12.803911 1.034414 32.774093 0.04154292 -0.08311513 0.00869769 0.00001580 0.00009429 0.00057102
263 1 16.496577 4.310231 17.547620 0.04259457 -0.03199688 -0.03926494 -0.00117807 -0.00085648 0.00160796
264 1 21.079568 20.627057 28.263999 -0.00540833 0.04221405 0.02010329 0.00001025 -0.00009255 -0.00009284
265 1 1.252226 23.286839 39.690158 -0.03068328 -0.01939497 0.00438510 -0.00004051 0.00006096 -0.00000004
266 1 31.335911 27.240299 22.320773 -0.06465586 -0.00897126 0.00654850 -0.00017647 -0.00012666 0.00000607
267 1 17.455917 11.726509 7.007432 0.00305714 0.01823348 0.01569867 0.00004941 0.00014097 0.00003441
268 1 19.004208 4.375365 10.547902 -0.00568941 0.03846116 0.02735210 14.98499804 -43.90577759 54.36846281
269 1 36.223961 18.819197 22.332703 -0.00275237 -0.00740383 -0.02689778 -0.01049783 0.01069927 0.00635408
270 1 15.234691 8.110593 27.393484 -0.00075934 -0.01167177 0.04945786 0.00022666 -0.00008363 -0.00006509
271 1 10.438106 32.325459 12.264220 -0.03607673 -0.00595297 0.00185395 -0.00022514 -0.00002981 -0.00003298
272 1 22.575782 2.404341 31.331318 0.03088826 0.03884604 -0.00219464 -0.00033607 0.00001573 0.00001817
273 1 12.598213 39.544698 13.351082 -0.07106172 -0.01186406 0.00368117 0.00034586 0.00042127 0.00119208
274 1 15.840236 39.028697 20.009676 0.00594586 0.00481519 -0.01370229 0.00043796 0.00025544 -0.00009883
275 1 18.113581 19.398951 30.428525 -0.00379679 0.02859967 -0.03336606 0.00006685 -0.00014028 0.00010718
276 1 13.927552 33.989994 27.776115 -0.00909546 -0.03079721 0.00080109 0.00030135 -0.00067713 -0.00003641
277 1 21.304726 26.857489 32.902965 -0.03289493 0.02861096 0.02560924 -0.15129828 -0.16042787 -0.63403001
278 1 30.040386 25.246607 17.734464 -0.01831256 0.02759944 -0.00482202 224.07547403 397.11303610 2273.44528554
279 1 13.715354 29.583410 12.609908 -0.04637971 -0.03005356 0.01643161 0.00002418 -0.00017001 0.00005161
280 1 36.208823 19.174519 37.944476 0.00115146 0.00292442 -0.02236186 -0.00004988 0.00002788 0.00033625
281 1 15.492175 36.442598 4.857953 0.04171696 0.06089207 0.00889276 0.00004574 0.00007327 0.00026008
282 1 4.562632 14.120759 30.314605 -0.02302387 0.03608471 0.00945270 -0.00024447 -0.00001403 0.00061986
283 1 20.215399 35.191563 34.963731 0.00377115 -0.02933312 0.03383983 -0.00010425 0.00021859 -0.00019317
284 1 21.230874 39.159556 27.022661 0.03589424 0.00760239 0.01256604 0.00106947 0.00066674 -0.00153754