ITEM: TIMESTEP
0
ITEM: NUMBER OF ATOMS
4706
ITEM: BOX BOUNDS pp pp pp
0.0 42.440503
0.0 42.440503
0.0 42.440503
ITEM: ATOMS id type x y z vx vy vz fx fy fz
1 1 5.360716 12.547689 30.355679 -0.01147058 0.04994637 0.03566443 0.00001779 -0.00005735 0.00003974
2 1 4.959276 39.708494 16.541164 -0.08560136 0.04961922 0.01496948 0.00003917 -0.00002741 0.00012664
3 1 37.879801 42.029378 40.576315 0.04306407 -0.00070112 -0.01257170 -0.00012569 -0.00020575 -0.00014285
4 1 8.657978 10.367752 16.119611 0.00565503 0.02037996 0.00421116 -0.00007818 -0.00006586 -0.00004687
5 1 14.438474 3.514708 33.212320 -0.01343395 -0.00288464 0.00398366 -0.00008460 0.00003385 -0.00009757
6 1 40.344047 28.282828 0.253035 0.02470092 -0.00641332 -0.03763747 0.00004452 0.00003706 -0.00002020
7 1 4.734553 21.275104 8.010470 -0.02353580 0.01885914 -0.02776193 -0.00002526 -0.00004307 -0.00002379
8 1 9.220358 7.684942 13.293093 0.02655356 0.05312316 -0.03720701 -0.00012901 -0.00006145 0.00000569
9 1 24.399080 13.579661 16.103659 0.00604748 -0.00903022 -0.02185374 -0.00005076 -0.00003156 0.00009530
10 1 6.689618 9.296033 31.548580 0.02704236 0.01037569 0.05903064 -0.00023117 0.00008773 0.00001695
11 1 38.964059 11.254277 23.174028 -0.01497085 -0.01431587 0.02909319 0.00001914 0.00015570 0.00003858
12 1 11.785738 40.662244 17.758690 -0.02011123 0.04947399 0.02509233 -0.00009289 0.00001297 0.00017768
13 1 18.742869 13.168024 26.512062 -0.02676657 0.01411211 0.02758333 -0.00017962 -0.00010139 0.00000829
14 1 23.322174 28.652201 11.402404 0.00102284 -0.00570515 0.00054811 -0.00003573 0.00003480 -0.00011321
15 1 35.648123 26.001373 13.412574 -0.04829864 -0.01308930 -0.03082854 -0.00006274 -0.00017293 0.00004378
16 1 30.589801 20.401549 21.138134 0.01649008 -0.04066381 -0.00460310 0.00012347 0.00001533 -0.00008362
17 1 32.554845 31.301632 24.461982 0.02505597 0.01589638 -0.01044811 -0.00015076 0.00008307 -0.00002200
18 1 34.860813 33.166162 24.112304 -0.06421044 -0.02062679 0.04032060 -0.00005857 -0.00004821 0.00001490
19 1 31.608886 9.516386 30.024057 -0.01544214 -0.02880624 -0.04413518 -0.00011995 -0.00003283 -0.00001736
20 1 33.926136 15.580212 11.710334 0.02032319 0.03289388 -0.01557427 0.00000946 0.00014090 -0.00002509
21 1 32.664453 12.189658 26.377843 -0.03699709 -0.01353594 0.01565628 -0.00008379 -0.00007663 -0.00003334
22 1 17.593324 19.881514 15.852142 0.02478071 -0.01279748 -0.00805604 15.84990363 -33.49572213 2.54097377
23 1 13.154811 30.932195 24.956964 -0.04720570 -0.02735423 0.09062890 0.00001300 0.00000573 -0.00003556
24 1 26.567990 8.294748 9.230294 -0.00479645 0.00300138 -0.00102295 236.98813280 -317.73182690 -130.98958724
25 1 8.602979 25.261904 11.818616 0.04203840 -0.01709554 -0.00477202 0.00003174 -0.00005686 -0.00006903
26 1 3.482631 14.386633 23.122350 -0.00929441 0.01636959 -0.00643057 0.00004113 -0.00005289 0.00000751
27 1 31.884785 32.188278 13.256344 0.01710119 0.00350117 0.03521731 0.00019360 0.00029856 -0.00009782
28 1 22.512732 14.203805 26.445273 0.03735811 -0.00631683 0.03756753 -0.00010355 -0.00004490 0.00004289
29 1 20.245750 1.846428 8.712302 -0.03090215 -0.02015532 0.04698094 -0.00030074 0.00007712 0.00022497
30 1 13.642502 31.336918 19.941040 -0.05656825 0.02194507 0.01886114 0.00008147 0.00019528 0.00004621
31 1 8.157088 33.271320 16.464170 0.02280528 0.00076520 0.07283819 10739.44128328 -13677.21850857 -12773.60030129
32 1 13.465037 13.066591 35.394391 0.00229797 0.06308085 -0.08151026 0.00005113 -0.00016713 -0.00010109
33 1 8.533773 16.051007 5.490067 -0.00561670 -0.07131091 -0.07570314 -0.00000630 0.00005909 0.00007832
34 1 7.762319 19.075044 0.624764 -0.03775823 -0.00394179 0.05417686 -0.00004640 -0.00009276 0.00000997
35 1 35.708705 28.230093 16.738574 0.00602654 -0.01171074 0.00733339 0.00006308 0.00001004 0.00002694
36 1 32.453355 7.758720 36.955679 -0.05036775 0.00793521 -0.00527327 -0.00003898 -0.00010521 -0.00000172
37 1 11.686828 26.333744 0.553912 0.00681671 -0.02824842 -0.05298468 0.00011300 0.00009782 -0.00027117
38 1 30.895829 0.935504 24.286419 0.03929944 -0.01648625 0.02175001 -0.00010622 -0.00010971 0.00001027
39 1 21.832167 22.911109 10.061210 -0.05849555 -0.03047063 0.03323709 -1.78871808 1.74951379 -0.25028115
40 1 3.582292 20.115166 6.942357 0.01983048 -0.02227308 -0.00677220 -0.00003955 0.00009206 0.00009943
41 1 6.009767 33.565154 10.724078 0.04288352 0.01602262 0.01317132 -0.00000286 -0.00002451 -0.00010608
42 1 15.338254 5.760267 10.220358 0.00326846 0.03601956 -0.02540432 14052.41205951 -8534.28458711 12717.96064324
43 1 12.570517 35.269287 33.107375 0.03143003 -0.04212535 -0.02039968 0.00003293 -0.00003203 0.00013026
44 1 20.337082 13.141188 7.962777 -0.03186305 -0.02321966 0.03154934 0.00000673 -0.00005695 -0.00012410
45 1 20.182559 17.595743 8.363044 0.02992493 0.04687308 0.04980246 -0.00026062 -0.00013148 0.00000680
46 1 9.975291 11.897870 1.844160 0.02767395 -0.03071935 0.03892336 0.00001997 -0.00017923 -0.00012547
47 1 7.321664 22.179062 27.309805 0.01146728 -0.02787808 -0.04599017 -0.00006194 -0.00014502 0.00001228
48 1 9.192132 0.674881 20.587329 -0.00235743 0.04295680 0.03619575 0.00001024 0.00000266 0.00001096
49 1 35.284688 37.491566 35.983795 0.02332482 0.03306168 -0.02725956 -0.00002109 0.00014549 -0.00015555
50 1 35.160321 37.205161 10.560383 0.02586896 -0.00928686 0.02694180 -0.00011600 0.00004838 0.00003468
51 1 18.593582 1.143882 17.841970 0.00848047 0.00570785 0.04659491 0.00005818 0.00001875 -0.00008838
52 1 11.892230 18.035980 40.532156 0.03812608 0.00509861 -0.02548359 -0.00004036 -0.00013691 -0.00008069
53 1 24.855780 11.347993 25.521402 0.03723296 -0.03041847 0.00318651 0.00011016 0.00016961 0.00006410
54 1 20.562674 11.417684 5.707006 -0.03199914 -0.01313475 -0.01659938 -0.00009920 0.00008420 0.00001608
55 1 33.594535 26.589601 6.561142 0.03313647 0.01398759 -0.01279104 -91776.63447227 406557.26340162 77775.06186222
56 1 7.078847 24.566883 31.487268 0.02073761 0.01020848 -0.01876066 595.08784655 -1194.41812536 -261.35074835
57 1 28.859445 12.672662 4.997604 0.01732172 0.00049445 -0.01273396 -263.54731741 1119.52845875 52.45784709
58 1 2.152538 2.274507 3.102853 0.04351413 0.01799429 0.01386220 0.00015530 -0.00000969 0.00015155
59 1 39.010708 21.770076 16.310865 -0.00138598 -0.00511410 0.01069143 -0.00005409 0.00020679 -0.00007033
60 1 20.413186 29.121385 36.628869 -0.08495943 0.02170466 0.02379404 0.00002550 0.00020043 0.00008036
61 1 13.371120 10.427841 8.320015 0.00117657 0.00923108 -0.02729296 -0.00001196 0.00017104 -0.00012962
62 1 32.074786 21.251671 28.230629 0.03103133 0.06267614 0.00159377 -0.00005038 -0.00007512 -0.00009828
63 1 28.405582 31.971112 20.598152 -0.07243280 -0.06411561 -0.00676478 -0.00016144 -0.00004469 -0.00020876
64 1 0.929078 25.265511 39.010458 0.01985035 0.02327949 0.05139371 0.00004244 0.00000946 0.00004944
65 1 34.551295 41.743010 8.618587 -0.02021402 0.02239597 0.01072940 -0.00000895 -0.00005726 0.00004834
66 1 24.851948 18.962552 35.567793 0.01035476 -0.05375751 0.00501567 -0.00009018 0.00011897 0.00003054
67 1 18.655147 34.775000 24.094715 -0.03862163 -0.01095466 -0.03175472 -0.00014334 -0.00011530 -0.00031805
68 1 38.608720 8.630707 13.071786 0.02457683 0.00170430 0.04542701 0.00004701 -0.00003437 0.00013556
69 1 9.783621 30.395937 29.624364 -0.02955569 0.00770338 -0.01826730 0.00001496 -0.00007358 -0.00009237
70 1 13.579422 1.801042 16.360643 0.00530813 0.00417897 -0.01322855 -0.00032842 -0.00007977 0.00017262
71 1 5.448316 38.839710 35.421878 -0.00211037 -0.00562956 -0.02601944 -0.00003569 -0.00001978 0.00008936
72 1 29.236431 21.266231 37.807020 0.01566593 -0.04140040 -0.03213450 0.00002410 0.00001502 0.00002585
73 1 11.728932 29.966150 6.862592 -0.04543756 -0.04447885 -0.01528511 0.00007029 0.00006120 -0.00000563
74 1 5.800092 15.514389 8.927685 -0.02600339 0.00064656 -0.04578900 -0.00004025 -0.00008955 0.00003381
75 1 32.975847 39.370356 9.743780 0.01786021 0.03490503 0.00869683 0.00003864 -0.00002934 0.00003329
76 1 16.934441 11.334209 33.197930 0.05765145 0.01189187 -0.01019370 0.00007017 -0.00004173 -0.00008356
77 1 37.370739 17.342317 23.268596 0.02841577 0.04593957 -0.00128185 -0.00011585 -0.00007733 -0.00001327
78 1 21.937692 40.211882 5.037032 -0.03743300 0.02810395 0.02326706 -0.00018183 0.00010357 0.00001630
79 1 30.626862 40.078110 24.034575 -0.02647691 -0.03339529 0.01996467 -0.00007010 0.00013921 -0.00010907
80 1 41.308541 5.734703 28.279497 -0.01865956 0.03137168 -0.03094638 0.00001504 -0.00016417 -0.00002672
81 1 24.122005 18.192044 11.263293 0.08107735 0.00143476 0.01157017 0.00008280 -0.00031672 0.00009513
82 1 13.092216 29.471485 28.133696 0.01480034 -0.00943114 -0.01384764 -0.00022122 0.00006814 -0.00004821
83 1 15.689277 0.741590 9.764731 0.03257159 0.00669154 0.04332297 0.00000212 -0.00027791 -0.00017760
84 1 19.166827 24.521051 15.295151 0.02624497 0.01056037 0.03214565 -0.00000977 0.00025609 0.00006956
85 1 21.666905 10.834357 0.841675 -0.01407244 -0.02944622 -0.01898857 -0.00002654 0.00002695 0.00010984
86 1 14.348306 36.093248 0.895300 0.05455672 0.01140381 -0.03494841 -0.00010299 -0.00006754 0.00010496
87 1 20.729013 41.099538 33.354414 0.01724856 0.00809502 0.06794130 -0.00005677 0.00014393 0.00009689
88 1 34.396061 20.376388 28.205810 -0.02376328 -0.02023662 -0.01836065 -0.00003578 -0.00006913 -0.00014462
89 1 24.503230 16.085503 25.402107 -0.01893038 -0.00263626 -0.00060307 -0.00001781 0.00005422 0.00008001
90 1 17.657625 0.665122 1.335426 -0.00065438 -0.01295850 0.02945812 -0.00004312 0.00008977 -0.00001614
91 1 39.965350 11.941889 23.181525 -0.02073152 -0.00744150 0.02306376 -141.17847763 36.30449714 -709.71300244
92 1 40.233815 14.805561 13.816543 -0.04048468 -0.03817691 0.02867429 -0.00001242 0.00002394 0.00009431
93 1 16.418722 15.294112 25.851572 0.01868572 -0.01642398 -0.04414781 -514.96712238 -1536.26513115 -775.77330879
94 1 5.758768 15.048460 1.109048 0.02792132 -0.03737611 0.01349167 -0.00003552 0.00005846 0.00011364
95 1 19.947084 36.827157 2.539193 -0.06364220 0.00823668 0.05752241 -0.00007416 0.00002360 -0.00004066
96 1 7.192493 37.122773 26.725382 -0.01085158 0.03661107 0.00140892 0.00008478 -0.00000414 -0.00005923
97 1 37.837022 12.296314 11.423222 0.00632375 0.01055876 0.04214145 -3467278.12033274 -13014131.74686930 -28996439.36994155
98 1 9.283145 38.435713 29.183274 -0.01697058 -0.04699539 0.01252741 -0.00015133 0.00006624 -0.00012670
99 1 31.290218 29.978256 17.277346 0.00757984 -0.00961230 0.00379551 0.00007394 -0.00008628 0.00001449
100 1 34.056678 29.554970 21.545560 -0.01088328 -0.01102206 0.00095564 -0.00001719 -0.00007791 0.00000357
101 1 16.268579 4.217637 24.654467 -0.03599685 -0.03959831 0.00988517 0.00019636 -0.00015920 0.00003569
102 1 34.353550 7.120398 36.866606 0.02159750 -0.04094119 0.01644928 0.00006563 0.00010660 -0.00001470
103 1 40.492617 0.616637 11.959558 -0.02452556 -0.00048124 0.00548003 0.00004058 -0.00011049 0.00017265
104 1 8.881181 41.674849 33.148171 -0.02309377 -0.01100682 -0.02572686 -0.00014679 0.00000628 0.00013237
105 1 14.969495 10.301863 16.040588 -0.00782732 -0.04995396 -0.01553389 0.00007854 -0.00006783 0.00005031
106 1 40.220343 35.297578 8.961767 -0.01206814 0.05225811 -0.01298758 -0.00002651 0.00007811 0.00005989
107 1 32.249978 29.292832 32.677244 -0.04306591 0.01620754 -0.00355898 -0.00003763 0.00003643 -0.00008629
108 1 16.059279 14.223888 25.310621 0.00070648 0.04172585 0.01248543 515.54579564 1535.01258112 775.88194105
109 1 27.842157 14.718845 13.441389 0.02135338 0.01888413 0.02239816 0.00002735 -0.00001103 -0.00001082
110 1 12.474914 35.301266 10.530696 0.00274681 0.02647896 -0.02564187 -0.00012268 -0.00018091 -0.00008018
111 1 32.451862 35.811291 12.167871 0.00272035 -0.01167729 -0.01902994 6.26491774 -37.75161859 -18.09886397
112 1 39.296564 27.803246 13.703098 0.01741015 0.02219187 0.03324917 -0.00006843 0.00003485 0.00010773
113 1 32.525431 28.605094 5.105369 -0.00574920 0.01087244 0.03614354 0.01881520 -0.03542236 0.02573076
114 1 32.207766 26.376084 21.742305 -0.00341167 0.03289491 -0.05952764 0.00007839 -0.00011484 -0.00009110
115 1 37.489772 24.251571 0.987320 0.00711487 -0.01577836 -0.02196442 -0.00009149 0.00019570 -0.00015568
116 1 9.960104 7.836352 33.247447 -0.03397949 0.04500748 0.00938695 0.00008091 -0.00001175 0.00008394
117 1 17.883781 37.350938 26.454856 -0.00076413 -0.01027401 0.03376635 -0.00006742 -0.00008820 0.00010600
118 1 17.780051 13.100257 13.110335 0.01497198 0.05781275 -0.00698199 -0.00017264 -0.00008332 -0.00008957
119 1 12.195227 5.006968 41.493065 0.00304473 -0.01753238 -0.00406842 0.28921827 2.06892687 -4.16844364
120 1 39.742442 5.419080 14.308146 0.00717688 -0.01228926 -0.00730924 -0.00020751 -0.00007713 0.00016043
121 1 5.043263 41.427668 2.878318 0.01684734 0.01678690 0.05568510 -0.00012648 0.00001634 -0.00011804
122 1 22.462919 34.654456 16.513730 -0.01862381 0.01182408 -0.05605696 0.00000071 0.00003545 -0.00003941
123 1 7.918595 5.963994 38.254801 0.01737519 -0.01219769 -0.00469342 -3.65130552 2.10234102 0.06519657
124 1 16.489651 23.982867 25.689759 -0.02114372 0.02112988 0.01513881 0.00006803 0.00003402 0.00006310
125 1 4.591237 15.159379 33.350410 -0.00897195 -0.03045037 0.04031529 -0.00001834 -0.00016833 -0.00020809
126 1 40.498118 11.353921 7.843836 0.01066029 -0.01227757 0.00272389 0.00045829 -0.00016732 -0.00066956
127 1 25.583109 0.795244 40.343027 0.02688904 -0.01920637 0.00602902 -0.00022903 -0.00007900 0.00001108
128 1 6.242850 26.976554 38.712183 0.00814267 -0.00315971 0.01114098 -0.00010009 -0.00024081 0.00010308
129 1 32.179412 2.839777 2.553285 0.04173565 -0.01008220 0.06582061 0.00004937 0.00009495 0.00003491
130 1 11.213926 2.777383 37.010942 -0.00440534 -0.01071536 -0.01086891 0.00021531 -0.00042086 -0.00054443
131 1 22.136480 16.894144 21.242490 -0.03357823 0.04488165 -0.00622362 0.00013145 0.00008999 -0.00013194
132 1 6.180941 11.653559 0.765626 0.04164933 0.00019703 -0.01775649 0.00015902 -0.00011323 -0.00018473
133 1 36.500672 30.601865 15.101166 -0.04087738 -0.00821441 0.05982200 -0.00004103 -0.00023853 0.00002297
134 1 21.143202 35.418045 7.471345 0.01054123 -0.03666755 0.02523436 -0.00014490 -0.00003752 -0.00012188
135 1 40.221863 14.170087 33.866162 -0.06948447 -0.00563783 -0.01068179 -0.00008981 -0.00001701 0.00003150
136 1 19.055141 6.444427 18.205574 -0.00044681 0.03112751 -0.02319357 0.00005628 0.00004414 -0.00008786
137 1 4.358662 4.967832 15.503712 0.02877655 -0.02110147 -0.03123320 -0.00017574 -0.00005661 0.00009826
138 1 5.561682 40.438513 40.128291 -0.04253328 -0.03293552 0.01982234 -0.00009087 -0.00007497 -0.00018507
139 1 41.455467 0.521251 1.435396 -0.03285969 -0.01843017 0.06169485 -0.00004129 0.00006353 0.00007562
140 1 14.220821 22.517760 20.752385 0.02705801 -0.01537209 0.00691422 -232.79294829 1020.50261214 617.32674347
141 1 14.980190 32.310556 30.805644 -0.01364675 -0.05101602 -0.04102774 0.00021631 0.00004848 -0.00002996
142 1 28.219494 17.378021 15.905584 -0.05467140 -0.02921754 0.03347694 -0.00005773 0.00009561 -0.00001136
143 1 16.502812 1.468702 19.204482 0.00956880 0.02215441 -0.02734106 0.00001753 0.00005690 -0.00000554
144 1 1.702200 21.186678 19.992335 0.00394195 0.00528809 0.03234628 -37.67912228 43.10148276 72.55537115
145 1 3.215821 12.153755 28.019539 -0.03456409 -0.06487558 -0.05372832 -0.00006433 0.00021684 -0.00012933
146 1 36.699731 11.834259 24.302966 -0.04961981 -0.05945582 0.00613321 -0.00245282 -0.00008381 0.00072032
147 1 22.968799 18.171484 33.839308 -0.01240310 0.01227600 -0.01678268 0.00010814 -0.00000346 0.00007376
148 1 26.376877 0.567728 26.247151 -0.02518694 -0.00627081 0.04052407 0.00008706 0.00000268 -0.00019609
149 1 23.721021 34.881991 34.448477 0.03560335 0.01608024 -0.01758563 1387362.45144886 -2041767.53576968 2099509.07658475
150 1 13.381661 27.884994 12.312094 -0.00849763 -0.02365187 0.02525383 -0.00007961 -0.00003898 -0.00008164
151 1 32.048530 20.196565 40.846944 -0.02497173 -0.04918280 0.00974925 0.00007836 -0.00015831 -0.00007134
152 1 6.967470 8.403064 17.015193 0.00328450 0.00908430 -0.00992121 -0.00009450 -0.00001357 0.00011484
153 1 42.423406 9.830513 36.166737 -0.02418450 0.00624190 0.00971734 -0.00014611 -0.00009803 -0.00000445
154 1 31.202460 1.224240 39.268879 0.04462812 0.02708115 0.00405201 0.00006677 0.00004895 -0.00005252
155 1 19.680766 5.513194 29.577628 0.01800183 -0.01343958 -0.06004452 -0.00006430 -0.00002724 0.00001995
156 1 27.347027 41.805630 34.043949 -0.05747249 -0.00144490 -0.02622887 -0.00000182 0.00018079 -0.00005901
157 1 24.091473 26.571733 37.736424 -0.05576295 0.05975151 0.06014755 0.00017739 0.00016538 0.00010978
158 1 31.164503 22.813630 12.510937 0.03308539 0.03485327 0.05685810 0.00003681 -0.00007935 0.00006059
159 1 19.791555 9.317906 23.040647 -0.01399548 0.00243913 -0.02042299 -0.00003168 0.00004900 0.00002613
160 1 21.917368 37.305995 30.335456 0.05579912 0.03076899 0.06731363 16.39210970 38.00239212 -26.06278558
161 1 22.474873 27.467671 30.507341 -0.03962835 0.02974086 0.02700020 0.00000855 -0.00003351 -0.00016648
162 1 4.809791 34.110066 10.230533 -0.01720067 0.01049826 -0.02773838 -41.10289528 -145.10326221 -185.95777451
163 1 4.349257 16.423781 21.010091 0.03641530 0.02139120 -0.00048542 0.00007659 -0.00017588 -0.00004454
164 1 5.864121 22.721236 9.975268 -0.02753278 -0.04802997 -0.04936706 7412.65549435 -29930.40483033 -4731.80273588
165 1 37.341299 2.057967 14.528887 -0.00022244 -0.02666961 -0.02493426 0.00013220 -0.00003935 0.00001202
166 1 8.440846 38.689304 32.432680 0.02798083 -0.03083118 -0.00656077 0.00003958 0.00000954 -0.00013371
167 1 12.322901 35.956120 7.182620 0.03190604 0.02636346 -0.04282928 -0.00018178 0.00006268 -0.00011962
168 1 15.947956 41.916246 10.255098 -0.02400432 -0.03371078 0.00654044 0.00004576 0.00002758 0.00000983
169 1 37.928149 0.209312 33.824856 0.01645085 -0.01340174 -0.00876334 0.00000678 0.00006434 0.00007339
170 1 32.527612 39.386230 24.779274 -0.04264873 -0.00541541 0.06781755 -4193.38690782 25277.13817030 34237.52884537
171 1 28.390606 4.425345 31.214798 -0.01226240 0.07107461 -0.00646462 -0.00013445 0.00012066 -0.00008144
172 1 20.441786 16.336635 38.717344 0.00097839 0.02250978 -0.05254049 0.00011167 -0.00007995 0.00003663
173 1 19.818144 11.459853 5.884092 0.00370099 -0.01431832 0.09669806 0.00007042 0.00001964 0.00009260
174 1 2.991319 18.176223 10.261912 -0.01263455 -0.00361930 0.03815603 32.97342125 12.51902865 18.58902959
175 1 13.388343 7.139392 7.069972 -0.03134682 0.00037852 0.04056966 -0.00089743 0.00045463 -0.00149512
176 1 23.453387 4.241642 34.410467 -0.03499895 0.01158737 -0.01997048 0.00003307 -0.00015642 -0.00000042
177 1 38.448439 25.502502 35.618063 -0.02403270 0.01489205 0.02355542 272.74300695 274.65901798 99.96003777
178 1 25.238871 2.690781 11.523727 0.03231296 -0.01592125 0.01713007 135028.08382465 54732.39637654 63469.45232534
179 1 34.484269 9.302381 3.276876 0.00248230 -0.00959746 -0.01396700 0.00011419 -0.00006049 0.00013943
180 1 9.776854 18.365485 20.918205 -0.02717441 -0.03348145 0.00301685 -0.00011489 -0.00011421 -0.00006074
181 1 41.067041 12.671812 40.033384 0.01790153 0.00960955 -0.03655396 0.00000768 0.00002607 0.00007736
182 1 29.799806 37.584903 6.152528 -0.02351020 0.01837046 -0.02276721 -0.00010441 0.00010040 -0.00010711
183 1 41.397325 19.815702 24.455534 0.04982079 -0.03299597 -0.00790146 -0.00014492 -0.00011408 0.00010122
184 1 17.958858 2.031659 12.946485 0.04613436 -0.05957395 0.02475563 0.00002422 -0.00023450 0.00012119
185 1 36.075603 17.708248 17.440816 -0.01332636 0.00530556 0.04720177 0.00014044 -0.00016795 0.00000955
186 1 31.496126 29.343395 35.979170 0.06271758 0.00542647 0.02509654 0.00002103 -0.00015800 0.00019567
187 1 16.990075 10.325229 42.232533 -0.04632020 -0.00813550 -0.02630125 0.00006375 0.00014659 -0.00009355
188 1 17.274246 39.131048 12.826357 0.04289875 0.03125193 -0.03487437 -0.00002846 0.00019652 -0.00010273
189 1 35.173773 21.098518 24.776706 -0.04827849 0.01148554 0.02047765 0.00008593 -0.00006172 0.00006539
190 1 7.556813 40.661198 23.591178 0.04178213 -0.00104715 0.02202221 24.48682977 34.39637064 -48.52684908
191 1 4.935003 13.389827 17.223263 0.01663064 0.00617998 0.00621803 -89145.98753775 190927.36267576 -183570.70484355
192 1 7.965674 37.008089 3.573691 0.03649932 0.03675232 -0.00441521 -0.00008783 -0.00001707 -0.00019892
193 1 4.601076 30.012028 2.827678 0.02246720 0.01997709 0.00488946 0.00000312 -0.00002449 0.00010812
194 1 22.276233 5.378191 8.783972 -0.02904446 0.03089077 0.00929142 -0.00045148 0.00022351 -0.00053726
195 1 6.844374 24.463270 42.142646 -0.00747015 -0.04149027 -0.03747713 -0.00006863 -0.00009748 -0.00004096
196 1 4.975023 12.079160 38.300431 -0.00001623 -0.03270753 0.02311085 -0.00013953 0.00017984 -0.00006472
197 1 31.204574 8.855159 6.802709 0.01002375 0.01558049 -0.00609365 0.00053323 -0.00032519 0.00007865
198 1 33.025430 36.173519 33.051019 -0.03863841 0.00003927 0.00635641 -0.00000222 -0.00006662 -0.00005084
199 1 29.059685 15.447345 19.885370 0.04071544 -0.00213992 0.02995148 -0.00003196 -0.00015635 -0.00009952
200 1 24.526146 24.172219 1.719840 -0.05170524 -0.06298215 -0.02015287 0.00000108 -0.00013535 -0.00002274
201 1 31.389609 20.702437 30.505906 -0.02453974 0.00836102 -0.02654885 0.00001229 -0.00005005 0.00004340
202 1 0.746502 2.690601 7.458813 0.02562763 -0.02126046 0.00094375 0.00005296 0.00013689 0.00014046
203 1 35.011935 4.786175 30.659365 -0.01494097 0.03426289 0.02381290 -0.00008477 -0.00001267 -0.00018411
204 1 8.336538 13.543943 32.062595 0.05302250 0.01817492 -0.01361798 39.04000033 -15.04767384 -22.45524902
205 1 4.536895 41.089835 4.775194 -0.02197196 -0.02361164 0.03256512 0.00002288 -0.00001295 -0.00012444
206 1 23.869740 40.322823 42.043890 0.00431209 -0.02856365 -0.03550200 0.00019198 0.00000294 -0.00012659
207 1 4.434502 25.910348 4.262813 0.01102780 -0.01632718 0.01690832 0.00002426 -0.00003098 0.00000724
208 1 9.298608 23.165316 8.626791 0.01304640 0.00353585 0.08374011 0.00207351 0.00013415 -0.00075224
209 1 2.484804 7.594199 12.316927 -0.03309901 0.01672922 -0.00001960 0.00000371 -0.00010113 0.00012308
210 1 0.882429 32.755784 0.379642 0.01045850 -0.00362504 0.02912778 0.00010833 -0.00016926 -0.00001940
211 1 17.254227 30.181573 5.600277 0.04551462 0.03619630 0.01217026 -0.00006772 0.00013608 -0.00006631
212 1 10.254155 34.361878 20.661141 -0.03561777 0.00189466 -0.01829076 0.00039561 0.00011883 0.00055977
213 1 35.424957 33.636414 10.493717 -0.05931295 -0.01482389 0.02429078 0.00113336 -0.00079984 -0.00068266
214 1 36.668510 30.009143 35.510900 0.02672038 -0.01745834 0.04620825 -0.00019914 0.00031816 -0.00000280
215 1 4.159844 26.776139 30.150924 0.01814228 0.03544981 -0.00281162 -0.00132787 0.00084640 -0.00048887
216 1 0.666775 16.077168 39.331217 -0.02751408 -0.02560630 0.00993842 -289960.86259150 -88925.94630972 -90624.28831512
217 1 18.421653 31.819728 11.003702 -0.02797246 -0.01538855 -0.02407654 0.00012189 0.00009737 0.00007344
218 1 1.805663 17.156356 0.099578 0.05274201 -0.02553839 0.02475880 0.00090571 0.00076794 0.00214695
219 1 42.098829 8.639008 23.989806 -0.04014229 0.01526379 0.01018318 0.00092202 -0.00127875 0.00031559
220 1 16.372151 14.400116 40.650010 -0.02734519 -0.03687843 0.05496344 -0.00021522 -0.00000388 -0.00001414
221 1 1.374714 7.117221 29.432355 -0.02631937 -0.02862347 0.04375538 0.00012154 -0.00003512 0.00017149
222 1 7.946124 30.576183 28.480561 0.02197777 -0.04269508 -0.01538467 0.00005133 0.00010884 0.00002387
223 1 2.339652 34.476600 10.811449 -0.01142874 0.05461418 -0.03507710 0.10990148 -0.01637970 -0.02573530
224 1 27.164319 33.249541 22.388532 0.00803977 -0.02700608 -0.00678496 0.00002051 -0.00017716 0.00001704
225 1 3.729207 22.740423 38.905991 -0.01111860 0.00245218 0.04603685 0.00004224 0.00003288 0.00001941
226 1 20.929212 9.682149 23.303523 0.03006433 -0.05367541 -0.02877452 0.00018700 0.00019046 0.00003084
227 1 41.761570 17.514092 36.917023 -0.03255424 -0.02016647 -0.01273266 0.00021256 -0.00044282 0.00044586
228 1 9.980518 30.660028 1.330800 -0.04890378 0.04553758 -0.00995687 0.00013028 0.00015592 -0.00017175
229 1 28.106971 34.871716 8.345035 -0.01111898 0.05248583 0.01456162 0.00003462 -0.00005678 -0.00021945
230 1 39.690119 24.232722 20.724805 -0.00067730 -0.02242653 -0.03540050 -0.00005191 0.00008759 -0.00008020
231 1 39.820037 34.530737 29.186972 0.03313135 0.04018545 0.02885967 -0.00005717 0.00005355 -0.00023502
232 1 26.610003 38.108068 27.544170 -0.07810245 -0.06864342 0.01827773 0.00027903 0.00006950 -0.00002819
233 1 12.660426 37.638473 32.955360 -0.05203435 0.01458862 0.01905220 0.00004785 0.00002480 0.00007738
234 1 0.174314 36.876947 40.333540 -0.04607391 0.05078843 0.03538225 -0.00016401 0.00002236 0.00000677
235 1 17.627853 4.509962 2.406740 -0.02983621 0.01953692 -0.01675458 0.00018610 0.00005153 0.00002568
236 1 36.719215 18.729258 21.109964 0.05992977 0.06188070 -0.01891125 -0.00004472 0.00000635 0.00005595
237 1 19.439868 25.921252 27.852320 0.01359121 -0.03046482 -0.04771744 -0.00007119 0.00016507 0.00005626
238 1 13.556971 34.217470 13.187591 -0.02781843 -0.01149565 0.07021856 6419075.73401530 -23053902.22211780 -14573447.96584328
239 1 23.255712 10.915651 19.869498 0.00134842 -0.02171034 0.02474104 0.00002032 0.00004704 0.00010631
240 1 13.358926 8.881658 9.648056 -0.00419382 -0.01508353 0.04224503 -0.00111844 0.00198409 -0.00033278
241 1 24.522271 33.367282 31.231701 0.01984810 0.00257783 -0.02315537 0.00066833 -0.00137906 -0.00195924
242 1 12.107364 14.815468 34.288832 0.02432605 -0.01893620 0.01733015 0.00061920 0.00029440 0.00038639
243 1 33.463253 27.266914 17.870364 0.02731399 0.05996714 -0.00144660 -0.00008456 -0.00000066 0.00003430
244 1 18.327908 38.805191 16.068376 -0.01915167 0.01742203 -0.02832878 0.00005422 0.00011307 -0.00020837
245 1 4.569496 38.629805 13.533827 0.01636624 -0.04850136 0.05164332 0.00005473 0.00034692 0.00000597
246 1 37.950606 3.741170 7.757727 -0.00273431 -0.04857718 0.02639088 -0.00004396 0.00002675 -0.00009302
247 1 26.692398 10.396617 41.614438 -0.06383584 0.00187179 0.03486916 -0.00017830 -0.00005234 0.00002399
248 1 12.641256 8.912435 5.163033 -0.00153491 0.02147119 -0.01615703 -0.00007053 0.00019721 -0.00007102
249 1 23.013591 41.764697 39.696720 -0.00534324 -0.02066468 0.00872391 -5.26051770 4.14105075 -1.67686939
250 1 8.419815 18.902550 42.311393 -0.00090896 0.07011400 0.02222718 -0.98137527 -1.12457795 -0.56170659
251 1 12.322270 4.642395 36.890425 0.03337496 0.02160777 0.03560382 -3.24282087 3.10589931 -0.70240343
252 1 32.213449 14.147315 34.048853 0.05609168 -0.01223715 -0.00224332 -0.00001655 -0.00006216 -0.00017506
253 1 7.031366 19.339865 31.795245 -0.03173775 -0.01006018 0.07576345 -0.00003303 -0.00009976 0.00012871
254 1 17.845169 15.083122 30.370284 -0.01116349 0.03192551 0.02766354 0.00005167 -0.00002083 0.00041382
255 1 24.212464 6.401458 38.901219 0.03789669 0.00798452 0.00623486 -0.00002306 0.00003852 -0.00004899
256 1 6.373735 34.959936 5.187285 0.01088629 0.00488916 0.03610063 0.00003811 -0.00000006 -0.00039105
257 1 41.625792 34.430363 5.852623 -0.02355473 0.01669435 -0.00591729 -0.00005009 -0.00000446 -0.00010902
258 1 10.539066 41.582651 17.949856 0.01242126 -0.03662685 0.03221715 0.00004174 -0.00007850 -0.00005770
259 1 12.948649 15.880074 23.058020 0.02493798 -0.02862395 0.00387888 -0.00068151 -0.00004958 -0.00042856
260 1 16.107165 21.463852 15.036682 -0.00053217 -0.02654542 0.00049953 0.32068616 -0.34151586 0.17577320
261 1 10.048025 37.071175 32.263230 -0.00635569 -0.02939146 0.01398012 0.00006242 -0.00006001 0.00011187
262 1 15.176949 40.784259 8.717443 0.04531531 -0.02962084 0.01652669 -0.00001521 -0.00001345 -0.00008684
263 1 2.866135 7.405241 33.245228 -0.04521746 -0.01055615 0.01641440 0.00000687 -0.00010751 -0.00002417
264 1 18.348420 27.203954 24.426821 0.02234215 -0.01860272 -0.04299430 0.00012979 -0.00003702 0.00004067
265 1 31.382736 23.693792 41.277960 0.01700942 -0.02846552 0.02658897 0.00001166 -0.00006174 0.00004793
266 1 16.479943 15.673168 38.157875 -0.06389789 0.01578459 0.00302907 1543.51891813 -1470.21800098 -292.67102161
267 1 27.967495 31.545370 38.898825 0.03495790 -0.05946296 0.04852537 -0.00006159 0.00005366 -0.00012246
268 1 4.401256 7.893191 11.498101 0.01808135 0.02632066 0.03540545 0.00007600 -0.00003234 -0.00012108
269 1 4.870792 18.623100 41.530145 0.00470140 0.02021091 -0.03256199 -0.00228799 -0.00017849 -0.00052896
270 1 20.896646 13.600424 34.356209 0.00057724 -0.06038107 -0.00585293 0.00003508 0.00004496 -0.00003708
271 1 21.850910 37.877128 20.084155 -0.05233892 -0.03768955 -0.00026633 -0.00000903 -0.00009036 0.00009846
272 1 27.791794 20.682015 35.460163 -0.04382641 0.00677522 -0.00981635 -0.00001851 -0.00000997 -0.00002350
273 1 11.562069 37.031641 10.896535 -0.01046199 -0.01599236 0.02480285 -10443.78550453 -3372.31441834 -1037.33034221
274 1 23.541690 35.364552 28.007225 0.02174941 0.02976193 0.01900158 0.00114510 -0.00137071 -0.00176670
275 1 21.521972 39.173029 29.908772 -0.02299554 -0.01659747 -0.03375576 1.04115456 -4.91645601 1.12340418
276 1 11.770350 21.974027 37.418862 -0.01343847 0.01279462 -0.00080178 0.00008810 -0.00009337 -0.00022214
277 1 36.611026 36.512707 11.528497 -0.03542553 0.00980354 0.01233505 0.00117992 0.00013553 -0.00025422
278 1 37.336840 17.289969 41.896496 0.00921550 0.01280125 -0.00414413 454547.57197254 2435644.86045023 -284867.42680981
279 1 11.787473 12.747953 35.490749 -0.00657039 -0.03932904 -0.01054950 0.00014622 -0.00000040 0.00020385
280 1 6.463607 9.971107 37.903658 0.03285103 0.00868980 -0.03361593 -0.00040133 0.00112195 0.00000901
281 1 40.744377 34.734275 0.557502 -0.02103991 0.02934308 0.04311996 -0.00002850 -0.00007335 -0.00004087
282 1 28.768532 18.032332 5.789536 -0.00903112 -0.08738306 -0.01983550 194.84322665 408.28376263 273.82730743
283 1 32.688110 0.205973 24.347968 -0.01392086 0.00354315 0.04098477 -0.00004445 0.00184026 -0.00035277
284 1 4.323621 31.874971 20.979984 -0.02674904 0.01496763 0.05900767 0.00000678 -0.00007591 0.00008196