ITEM: TIMESTEP
0
ITEM: NUMBER OF ATOMS
3812
ITEM: BOX BOUNDS pp pp pp
0.0 37.895196
0.0 37.895196
0.0 37.895196
ITEM: ATOMS id type x y z vx vy vz fx fy fz
1 1 22.247234 35.990004 25.207702 0.01177387 0.01012824 0.00764626 0.00005007 -0.00017148 -0.00000889
2 1 0.424070 34.955264 1.232038 -0.04015980 -0.00820638 0.04289640 -0.00016386 0.00029077 -0.00002571
3 1 13.680147 25.830364 28.608256 0.03708114 -0.01735886 -0.03322076 -0.00007605 0.00000562 0.00006145
4 1 12.857620 18.522497 28.946541 0.00565800 0.01775149 -0.03694913 -0.00002231 0.00011891 -0.00003166
5 1 24.607824 1.017311 27.497124 0.01536729 0.00527973 -0.04218484 0.00012509 -0.00011265 0.00013952
6 1 23.066578 34.996797 8.762188 0.00475475 0.00074053 -0.02293212 -0.00007858 0.00007180 -0.00007554
7 1 8.367929 31.948411 12.112247 0.00145238 -0.01382223 0.00376217 -0.00011260 0.00007407 0.00021202
8 1 1.666289 19.126456 10.568130 -0.01817805 0.04240633 0.01866176 -28775.78790845 51239.03687137 -135763.72221291
9 1 9.603494 34.647872 23.264240 0.00817967 -0.04572751 0.03713414 0.00003250 -0.00010616 -0.00005519
10 1 37.721136 11.940933 18.097298 0.00688310 0.02449891 -0.00135780 0.00006777 -0.00008990 -0.00010452
11 1 34.809479 14.236612 23.900395 0.01810247 0.00944022 -0.01493032 0.00006493 -0.00001641 -0.00010999
12 1 9.253592 34.797357 4.032661 -0.04316647 -0.02761232 0.00715309 -80.78382188 -111.98497124 80.17005918
13 1 28.406008 18.687283 37.673990 0.05377202 -0.01206638 -0.02448164 -0.00010726 -0.00002133 0.00006124
14 1 23.281033 1.289117 22.122661 -0.00171719 -0.02406206 0.03100262 0.00022061 0.00011228 0.00005727
15 1 15.073397 19.110540 30.661504 0.01469503 -0.02473113 -0.05261066 -0.00004620 -0.00011152 0.00004625
16 1 1.581236 22.356318 27.842740 -0.01656263 0.01759723 0.00197440 -0.00003228 0.00000450 -0.00016094
17 1 13.401459 24.974229 31.469644 0.01772801 -0.00064395 0.04515057 0.00007923 -0.00010927 0.00012120
18 1 34.998208 35.238897 8.411773 -0.02819598 0.02948188 -0.05583093 0.00003576 -0.00012850 -0.00003113
19 1 14.640099 17.570989 26.999630 -0.01566784 -0.00456314 0.05575157 0.00007985 -0.00019912 0.00001130
20 1 30.145912 32.044123 31.319718 0.02124880 0.05474701 -0.03317808 0.00001082 -0.00007892 -0.00016075
21 1 31.389180 6.354404 31.662514 0.00096809 -0.01131728 0.00897536 0.00013694 -0.00003569 -0.00001108
22 1 34.133306 17.266336 23.660963 -0.02312316 -0.02700344 0.01459398 -0.00001423 0.00008165 -0.00001322
23 1 32.032759 18.296164 3.403989 -0.01507317 0.04552117 0.01522160 3474.48616877 -9075.70772251 -2677.06697354
24 1 10.089694 15.277508 2.220997 0.02588621 0.02752184 0.00644728 -0.00006979 0.00009057 0.00015284
25 1 35.470968 30.752842 11.478873 -0.02396418 0.01539175 -0.03732889 0.00007001 -0.00016390 0.00005013
26 1 30.803662 15.151732 3.200703 -0.01382462 -0.04503164 -0.04099588 -0.00069052 -0.00239080 -0.00019347
27 1 22.510827 21.254411 15.652380 0.04075340 0.03430560 0.01655479 -0.00006437 0.00014618 -0.00000174
28 1 36.584141 21.892307 13.295898 -0.02593373 0.01891387 -0.02040338 -6.09651577 -1.27170840 -3.38880440
29 1 33.137267 23.619926 36.912874 0.06747662 0.00463535 0.00087718 0.00010434 0.00023014 -0.00001530
30 1 29.901287 11.788432 7.397508 0.02712359 0.06076042 0.01765525 -0.00018624 0.00003681 0.00020177
31 1 13.567591 23.100516 33.680912 0.04767403 -0.02047471 -0.00380882 -0.00005451 0.00001462 -0.00011530
32 1 10.127921 24.576315 29.310617 0.02031904 0.05526355 0.03633899 0.00009323 0.00000563 -0.00012878
33 1 14.002319 25.756078 28.861187 -0.00147632 0.01283311 0.00489013 0.00010651 -0.00001464 -0.00012418
34 1 5.028058 9.517920 12.467144 -0.00448921 -0.03751092 0.03382510 -0.00000917 0.00001250 0.00000930
35 1 2.475427 17.196085 20.230046 0.03275440 -0.00862410 0.07110981 0.00009211 -0.00014459 -0.00012547
36 1 29.573298 14.624942 37.053884 0.02490336 0.03446679 -0.00451062 -7130.54468396 35034.15883818 5510.94465452
37 1 21.360090 17.409607 15.793242 0.00862687 0.04557387 0.00526330 -0.00002220 -0.00004533 -0.00000863
38 1 15.574670 11.577510 32.618098 0.06731986 -0.01998408 0.04563774 0.00008655 0.00005988 0.00020649
39 1 17.478873 33.877038 22.345583 0.00073320 -0.06450542 -0.06883806 -0.00012569 0.00016022 -0.00004360
40 1 20.807295 24.631565 5.250780 0.03436215 -0.00547213 0.01190873 -183.88381065 55.36404447 96.55555463
41 1 17.002899 14.736787 0.733893 0.04843960 -0.03660772 0.01844519 0.00003621 -0.00003695 -0.00004349
42 1 1.871808 16.805026 17.765436 0.02650425 0.02259254 0.04537854 0.00011791 0.00004537 0.00009735
43 1 9.349682 29.518917 8.708185 -0.07497686 0.01216020 -0.00941346 -0.00026274 0.00014502 -0.00000674
44 1 27.536075 19.987873 3.996888 0.00510612 -0.02004436 -0.02198056 -0.00063922 0.00019958 0.00011565
45 1 19.085277 12.503330 30.245511 -0.03041410 -0.04853114 -0.01577896 -0.00000554 -0.00011932 -0.00007870
46 1 30.537205 7.891866 4.417022 -0.02273454 0.02033415 -0.04011983 0.00013082 0.00008071 -0.00003817
47 1 9.131117 4.238036 21.589354 -0.06711227 0.02081838 0.04343875 0.00000211 0.00006026 0.00017860
48 1 0.574619 36.335896 16.476321 0.00281321 -0.02199867 -0.03398495 -0.00008172 -0.00013985 0.00008747
49 1 32.155314 20.136115 15.460967 -0.05317607 0.00140432 0.01764402 -0.00010572 -0.00016022 0.00011383
50 1 1.564490 8.098546 22.314730 0.01446998 -0.00071111 0.01984930 0.00010089 -0.00007436 -0.00006657
51 1 28.148701 35.984243 12.866498 0.01313352 0.01743843 0.00601832 0.00006380 -0.00004583 -0.00000396
52 1 15.049789 25.445601 32.346762 0.02995764 -0.03360554 0.04051746 -0.00000118 0.00013664 -0.00013711
53 1 9.504921 32.913054 24.713615 0.06435869 -0.00112834 -0.04874255 -0.00000899 0.00009748 0.00002425
54 1 5.151715 0.101575 18.089244 0.02275073 0.00678884 0.05339848 0.00003209 0.00004742 -0.00023206
55 1 15.921588 16.548350 16.916622 -0.00653648 -0.07049966 0.07994238 0.00010865 0.00003643 0.00011756
56 1 8.342831 32.217519 11.232730 0.04096865 -0.00950621 0.00137961 -0.00001750 -0.00000087 0.00000597
57 1 22.970661 22.458398 35.877812 0.03871883 -0.04754895 0.03847408 -2009.13000290 -1149.70338026 66.73213023
58 1 25.979884 19.261518 31.312863 0.07450400 0.00811852 0.01148537 0.00006538 0.00003829 0.00003294
59 1 21.681833 11.981726 36.421478 -0.02062473 0.05138717 0.03896799 -0.00005965 -0.00006188 -0.00003063
60 1 10.573117 3.440148 21.245624 0.00772330 0.04180558 -0.00436492 0.00008145 -0.00013033 -0.00003919
61 1 23.189287 14.811697 13.330486 0.00023242 -0.03086991 -0.06239371 0.00010255 0.00009259 -0.00014814
62 1 29.697493 21.655936 14.530779 -0.02073245 -0.00126535 0.02583584 -0.00002862 0.00002742 0.00020735
63 1 6.423562 11.442935 10.649626 0.00926079 -0.00755548 -0.06281941 -0.00002953 0.00014381 0.00006995
64 1 34.108536 20.164491 31.603137 -0.01197255 -0.00337377 -0.02094244 -0.00002647 0.00005219 -0.00006023
65 1 1.253325 13.663051 17.135021 -0.00402603 -0.02645760 -0.04681286 -0.00004481 -0.00000607 0.00023403
66 1 30.909974 23.673086 8.567467 -0.01508516 0.02044756 -0.02791944 -0.00004411 -0.00010085 0.00020317
67 1 25.531238 35.149517 15.981709 0.01830943 -0.02233931 -0.07473410 2.63863776 5.69827296 -1.49419352
68 1 37.219828 10.667518 25.986750 0.05997367 0.01373749 -0.00806294 16671.57401143 -14262.56336826 -16812.36900753
69 1 0.568250 35.644663 32.433495 -0.05525890 -0.03165921 0.01457735 0.00011014 0.00007779 0.00009061
70 1 22.070594 15.802749 9.502411 -0.02298664 0.02273998 -0.01173899 -0.00007758 0.00015733 -0.00006696
71 1 23.368015 13.408463 30.392163 -0.02654015 0.00182773 -0.05120019 0.00001357 0.00007110 0.00010789
72 1 5.105060 6.831430 12.770685 0.00883558 0.05101761 -0.00071713 0.00012781 0.00007888 -0.00004930
73 1 12.592785 16.254169 6.862577 -0.00343593 -0.01736805 -0.02253645 -0.00002208 -0.00007191 -0.00008866
74 1 8.101030 23.359345 35.316258 0.02429811 0.00301389 0.01229506 0.00003404 0.00005878 -0.00017413
75 1 22.958428 29.077209 20.403862 0.06007338 -0.03439605 -0.06369563 -0.00007310 -0.00017031 -0.00010212
76 1 14.097169 15.200110 7.373473 -0.00890762 0.02779837 -0.03444701 0.00003909 0.00020771 0.00016634
77 1 10.127272 6.806735 20.020086 -0.04578356 -0.02627984 -0.02691465 0.00005330 -0.00011274 -0.00010813
78 1 32.902564 36.254656 3.218671 0.01882493 -0.02861575 -0.01067211 0.00000888 -0.00007639 -0.00000210
79 1 20.255573 35.141278 15.479791 -0.04448643 -0.00483840 0.00060454 -0.00022426 0.00006460 -0.00006334
80 1 12.986571 21.039072 23.779985 -0.05042052 -0.01680811 -0.02524829 0.00022137 -0.00012683 -0.00012888
81 1 3.441827 15.745907 28.272839 0.02353569 -0.01707805 0.03536871 -0.00007385 0.00010460 0.00023330
82 1 5.593154 33.356779 3.165956 0.03832534 -0.01157606 0.04011083 -0.00141629 -0.00052421 -0.00046807
83 1 18.588860 22.242591 11.415826 0.00615871 -0.01325989 -0.02894062 453628.76073982 -95984.50818828 1664029.37223436
84 1 11.845380 5.069869 4.294597 0.02239436 -0.03047784 0.02292802 0.00003265 -0.00017958 -0.00017951
85 1 4.028006 10.745187 34.974725 0.01230016 0.00468190 -0.00516286 -0.00002694 0.00016100 -0.00001464
86 1 4.172882 22.275669 29.205277 -0.03968276 0.02726406 0.01829643 -0.00002131 -0.00005587 -0.00021907
87 1 7.723675 33.213035 11.358595 -0.03218014 0.00568595 -0.00359675 -0.00006758 -0.00012586 -0.00005612
88 1 13.942316 14.407403 10.527741 0.03900682 0.00584631 0.03352277 0.00003139 0.00009376 -0.00001508
89 1 35.561288 14.432191 36.871824 -0.04480825 -0.01423581 -0.02581386 0.00018197 -0.00016009 -0.00011797
90 1 28.727541 13.674223 20.225392 0.00332234 -0.07820187 -0.02840151 -0.00011258 -0.00015298 0.00015222
91 1 35.599224 2.238323 13.158172 0.01583550 0.00757366 0.02613308 0.00003609 0.00002706 -0.00002800
92 1 5.782145 5.725890 21.350851 -0.05870381 0.00287423 0.00543895 -0.00006736 0.00001866 -0.00006973
93 1 19.773839 17.564013 15.314442 0.01052249 0.06551872 0.01768416 0.00000427 -0.00009452 -0.00002594
94 1 3.179830 1.713748 17.639691 -0.00431299 -0.03706480 0.05133606 0.00010236 -0.00007520 0.00011310
95 1 34.851701 21.366188 6.487559 -0.02428507 -0.05005613 -0.00057549 0.00033911 0.00028661 0.00003266
96 1 1.892466 7.107526 27.529102 0.01681790 0.01188336 0.02996736 0.00028861 -0.00063529 0.00003186
97 1 22.983907 18.499437 5.011247 -0.03911937 0.00284967 -0.03301074 -0.00003236 0.00015338 0.00010349
98 1 12.744585 29.282271 6.018469 -0.01216833 0.00090933 0.01493913 0.00006382 -0.00002134 0.00020190
99 1 17.312440 8.001438 34.316494 0.00631852 0.00518898 -0.01643820 -0.00009567 0.00002863 0.00007184
100 1 23.954128 4.570626 28.712780 -0.00742789 -0.01412799 0.00630527 -0.00001304 0.00009631 0.00000162
101 1 26.951122 20.991377 18.030454 -0.00326558 -0.04850833 0.01908552 -0.00000557 0.00010561 -0.00001046
102 1 23.609875 29.233510 20.298753 0.02721740 -0.00289658 -0.05573809 -0.00014685 -0.00001265 0.00009813
103 1 14.814123 32.441723 11.528932 -0.00403151 0.00794621 -0.02485930 -0.00003501 0.00000979 -0.00002648
104 1 19.992072 7.921876 34.497757 -0.00390758 -0.02555412 -0.00651161 -0.00003240 -0.00006709 -0.00002738
105 1 16.471940 7.215699 29.324832 0.05901091 0.01305795 -0.06721692 0.00001555 -0.00012667 0.00022232
106 1 26.443136 27.913218 1.824354 0.00016502 0.04110678 -0.01567907 165768041.00053966 109682473.19843076 -182319617.14767942
107 1 30.762188 18.731175 11.305487 -0.00760545 -0.01055524 -0.01362296 -0.00001290 -0.00015471 0.00020155
108 1 8.119375 35.894760 30.898920 -0.00739273 -0.01741869 0.03768040 -0.00002526 0.00011311 -0.00009569
109 1 34.029576 22.580663 5.041987 -0.04755981 -0.02606116 0.04200965 0.00021976 0.00021184 0.00022512
110 1 34.332722 36.364894 14.883584 0.03496041 0.01691471 0.05178269 -0.00012671 -0.00004805 -0.00019844
111 1 13.127278 37.629246 13.831881 -0.02612540 0.04244530 0.02315973 -0.00001722 0.00013725 -0.00001564
112 1 20.992331 32.073843 33.120982 0.00305770 0.00059205 -0.03881199 0.00008405 0.00011398 -0.00005784
113 1 21.677505 7.637833 36.768657 0.06062729 -0.02524735 0.00437789 0.00017564 0.00018722 -0.00010470
114 1 11.284229 25.457126 32.983763 -0.03035167 -0.06227441 -0.01618987 -0.00007846 0.00017007 0.00013756
115 1 7.834789 12.071746 35.044372 0.03231318 0.02291587 0.04515594 -0.00013626 -0.00003140 -0.00000027
116 1 21.420987 23.433408 9.091223 0.01699705 0.02891969 -0.01182335 822.50820541 22279.33967844 10139.45544094
117 1 27.441566 23.078837 31.975649 0.01594090 0.03764331 -0.00365598 0.00005943 -0.00000267 0.00002335
118 1 27.184913 22.822464 0.194129 -0.01057553 -0.05145955 0.01116010 0.00051989 -0.00010625 0.00016034
119 1 9.479492 7.569415 28.737744 -0.02196245 -0.00192638 0.00722550 -0.00003285 0.00014405 0.00018481
120 1 1.580838 16.784156 28.762149 -0.04213775 0.01583935 -0.00709681 -0.00005685 -0.00000479 -0.00001980
121 1 12.483527 37.570596 6.255967 0.03253078 0.03907664 0.00716667 0.00048349 0.00036708 0.00033228
122 1 15.882331 14.648606 35.399575 -0.00225927 -0.03805880 0.01299316 -0.00007715 -0.00003496 -0.00007103
123 1 13.901598 20.241692 10.630637 -0.00290120 -0.00529068 -0.00752231 -119.44129604 -173.39506125 68.91229044
124 1 25.360641 18.174931 21.020398 0.01564888 -0.00647958 0.02003226 0.00001595 -0.00003956 0.00008465
125 1 34.874030 36.673968 29.503595 -0.04487155 -0.04492342 -0.01517673 0.00015008 -0.00001477 -0.00012721
126 1 35.241090 11.196108 22.765376 0.04336227 -0.04763153 0.01487119 -0.00099962 0.00019019 -0.00167719
127 1 10.445047 15.905158 36.819415 -0.00452594 0.02054039 0.04350245 -0.00001614 -0.00010870 0.00003322
128 1 20.558107 1.834311 10.925966 0.03484075 -0.00333017 -0.06146419 -0.00008330 0.00001699 0.00000838
129 1 24.458505 12.191037 37.889984 0.01772576 0.02223122 0.04318999 -0.00011928 -0.00003091 0.00005808
130 1 14.910544 27.453051 29.531272 -0.02973740 -0.03586595 0.00145285 0.00000969 -0.00008365 -0.00011541
131 1 11.630718 23.152243 26.698086 0.00144851 -0.00135415 -0.00224967 0.00005376 -0.00000497 0.00019671
132 1 21.633318 36.256607 12.074665 -0.05249980 0.00594138 -0.02865998 -0.00016745 0.00004335 0.00005033
133 1 27.615461 26.878928 15.816635 0.00748345 0.03312138 0.03466288 0.00013605 -0.00011628 -0.00008726
134 1 4.054000 15.345423 19.529753 -0.04188866 -0.05995595 0.01192853 0.00000054 -0.00010003 -0.00007961
135 1 0.932239 30.431740 25.278493 -0.00242486 -0.02151979 0.05145908 -0.00017000 -0.00016415 0.00009290
136 1 26.069018 32.663773 16.998598 -0.01486636 -0.01183722 -0.07786151 -0.00759692 0.03502500 -0.01436521
137 1 35.248460 0.561380 30.628458 -0.00081181 -0.02074179 -0.04950617 153289.92886553 -84368.76129807 124748.44716873
138 1 21.792874 5.386622 0.096852 0.00736129 0.03727426 0.08695673 -0.00001585 -0.00004644 -0.00019849
139 1 34.778313 30.690461 2.015237 0.00287162 -0.03361073 -0.03348443 -0.00003767 0.00000912 -0.00008965
140 1 2.283426 10.789351 15.755090 -0.01156255 -0.01394739 0.00392591 -0.00004049 0.00006625 -0.00005968
141 1 15.253165 25.472062 29.650613 -0.01627127 0.00808602 -0.01187435 0.00016066 0.00009362 -0.00012043
142 1 35.999143 17.876142 32.975946 0.00489050 -0.01099186 -0.00091153 0.00023271 -0.00002011 -0.00004532
143 1 12.373683 22.713979 16.126628 0.01731066 -0.01874806 -0.07928430 -0.00004991 0.00005033 -0.00006455
144 1 12.594320 34.234238 27.797746 -0.00247818 0.04636767 -0.03130051 0.00029740 0.00004092 0.00000120
145 1 16.263433 7.635369 10.235631 0.02192034 0.01485378 -0.01808215 0.00016631 0.00006743 -0.00023001
146 1 32.242473 17.035913 5.559262 -0.04956488 0.02403475 -0.04806312 -0.01349688 0.08167660 -0.13937595
147 1 26.214563 31.592962 16.356858 -0.02125659 0.00135544 0.02116856 0.00046687 -0.00248083 0.00031510
148 1 27.761226 30.092339 23.021157 0.00999991 0.01539128 0.03021832 -0.00003130 -0.00016193 0.00020297
149 1 16.094515 20.191114 33.517253 -0.02213440 0.06463237 0.04987116 -377.67287660 -242.95946221 -200.23237930
150 1 37.234334 3.877979 29.899095 -0.07513835 -0.01056941 -0.06118714 0.00088640 0.00140949 -0.00028557
151 1 22.758600 19.870362 26.890128 0.01127250 0.04732228 -0.03986640 0.00004716 -0.00004765 0.00009429
152 1 35.707125 3.903602 5.698337 0.03703084 0.05706970 0.01843987 -0.00020428 0.00008443 0.00002359
153 1 24.060145 34.398038 31.868408 -0.02139703 -0.00706038 -0.00502740 0.00007331 0.00005381 0.00006863
154 1 0.745940 21.094427 28.280732 0.01581277 0.02955503 -0.00468351 0.00007906 -0.00000779 0.00011185
155 1 35.890452 33.384379 16.520023 0.00592720 0.00491382 -0.01791934 0.00008177 -0.00003990 -0.00001823
156 1 5.887135 37.465376 4.668803 0.00845420 0.00204266 0.02532619 -0.00088470 0.00063187 0.00037041
157 1 8.707943 14.409474 1.977349 -0.00179049 0.05607770 -0.01970732 0.00007569 -0.00000161 -0.00014480
158 1 21.314325 3.024298 0.769013 -0.03900795 -0.02648531 -0.02331834 0.00002483 -0.00001670 -0.00008622
159 1 28.517131 13.866794 1.490338 0.04379358 -0.01518572 0.05230227 853.41340212 267.27716403 518.07346275
160 1 5.621779 20.722541 32.437451 -0.01542582 0.02661471 0.03705500 0.00015561 -0.00008544 0.00012602
161 1 1.678754 26.992484 15.665497 0.07532633 0.00217114 0.00726143 -0.00006774 0.00001036 -0.00006588
162 1 16.951898 2.991170 28.028857 -0.03634004 0.07184610 0.01323075 0.00012645 -0.00000823 -0.00010829
163 1 17.303768 19.187045 1.080682 -0.00487016 -0.01024533 -0.05534297 -0.00006388 -0.00022320 0.00022817
164 1 35.740510 20.753849 1.197559 0.02054273 0.02867132 0.01996179 0.00035528 0.00021091 -0.00008351
165 1 35.424839 26.642225 6.891483 -0.03097814 -0.00910685 -0.04466537 0.00013755 0.00001837 -0.00013702
166 1 0.679526 34.671446 9.965469 0.03007313 0.01399049 0.03019829 -0.00017716 0.00005246 -0.00009167
167 1 1.786336 27.790806 35.507737 -0.02342570 0.00733251 0.02370004 0.00001807 0.00004171 0.00010327
168 1 18.016569 36.611218 27.095460 0.01233820 0.05597768 -0.01715250 0.00010761 -0.00017153 -0.00012087
169 1 17.282093 20.787037 15.057068 0.08380218 -0.01351193 -0.05925686 -0.00037088 -0.00048111 0.00134502
170 1 4.354425 3.504960 6.225371 0.02730910 -0.00000424 -0.00373145 -0.00009032 -0.00003612 -0.00004100
171 1 37.562641 17.249576 36.896689 0.03520473 0.01382359 -0.02725699 -0.00010209 0.00000113 0.00017758
172 1 4.038760 17.908840 1.247374 -0.04325982 0.03762475 0.02860923 0.00002306 0.00019930 0.00002882
173 1 37.665471 28.760195 19.657084 -0.02422426 -0.00428422 -0.03741538 -9514.79117055 7486.28264074 78763.05388910
174 1 29.659488 15.708745 27.548494 -0.03584320 -0.04671144 0.03816579 -0.00002681 -0.00004674 0.00001435
175 1 3.894118 6.108329 26.341483 -0.00661906 -0.02304027 0.02812424 0.00007336 0.00012054 -0.00011738
176 1 34.290736 7.351223 3.767720 0.03588563 -0.00827839 -0.05155470 -0.00005017 0.00006490 -0.00009343
177 1 9.697629 8.342876 26.398555 -0.03371681 0.02522736 0.02331393 0.00000247 0.00009808 -0.00010279
178 1 6.972521 35.172865 19.960745 0.00505269 0.06247877 -0.04490677 7.74621661 42.04444673 214.87803707
179 1 4.537697 30.768221 34.055944 -0.02542628 -0.02418825 0.06888501 0.00018370 -0.00008169 -0.00012727
180 1 36.427068 14.995385 20.626136 -0.05004406 -0.02739977 -0.00910230 -0.00022488 0.00002551 0.00016482
181 1 24.398675 32.559867 7.656460 0.02149265 -0.00031069 -0.01087753 0.00000309 0.00007647 0.00023598
182 1 12.589508 13.120990 5.087519 -0.06738534 0.01668070 -0.01353901 -0.00019512 0.00009667 -0.00010416
183 1 0.683486 15.592526 21.889103 -0.01516533 -0.01675625 0.00377786 0.00011939 0.00001372 -0.00004043
184 1 6.500732 12.360147 15.795116 -0.03085121 0.00409072 0.00498287 -0.00014090 -0.00008743 0.00005568
185 1 0.596374 28.191847 19.651056 -0.04672316 0.00575438 -0.02071643 -26556.67307279 18270.71572699 193.80880417
186 1 11.885934 15.490638 35.209109 -0.01329518 0.01212434 -0.01549340 0.00021021 -0.00006149 0.00005810
187 1 18.477232 30.094773 24.512240 -0.01046306 0.01944992 -0.02916568 -0.00012373 0.00001411 0.00009745
188 1 28.744080 3.024872 19.505397 0.01955074 0.01473005 0.04342323 -0.00002032 -0.00007697 -0.00002350
189 1 10.273007 27.885446 5.099095 -0.00336699 -0.02797791 0.00837594 -0.00005529 0.00006917 0.00003796
190 1 11.041422 31.808179 26.381584 0.03194103 -0.01090690 0.02560178 -0.00011003 -0.00018669 -0.00009147
191 1 28.351518 26.693119 7.079361 -0.01510752 -0.01251035 0.01073878 -0.00003275 -0.00012016 0.00010793
192 1 15.507589 14.920165 36.738632 -0.03569243 0.03152912 0.03550060 -0.00003986 -0.00009828 0.00000827
193 1 20.690766 20.435796 18.874127 -0.01751101 -0.02365160 0.05604737 0.00013715 0.00011292 -0.00002654
194 1 20.334949 8.050447 30.638359 -0.02938654 -0.04439209 -0.04040560 -0.00008384 -0.00024562 0.00020922
195 1 35.306269 7.533804 35.586277 0.02895262 -0.03805759 -0.00927323 -0.00002690 0.00024535 -0.00018307
196 1 27.911202 29.853456 23.614566 -0.02183900 -0.00146248 -0.02182812 -98.51150504 -21.89103502 56.70239659
197 1 27.626695 6.506343 31.498612 0.04422212 -0.00912103 0.02384410 -0.00008917 -0.00001869 -0.00009460
198 1 25.007024 21.358133 28.464055 0.01597088 0.00871571 -0.00066581 0.00004026 -0.00000993 -0.00005547
199 1 16.057588 15.908440 16.048454 -0.02671160 0.01488729 -0.00871372 0.00007131 0.00000670 0.00012972
200 1 19.396541 25.906873 14.490309 -0.00176204 -0.04955366 -0.02590113 -0.00003943 0.00048121 0.00046460
201 1 1.496344 30.396613 7.809445 -0.06315755 -0.00857819 0.01369673 -0.00014899 0.00011348 -0.00000504
202 1 15.441447 24.507583 4.306126 -0.05564866 -0.03982247 -0.03170537 -0.00011872 0.00008561 -0.00020985
203 1 15.645795 34.706835 22.918554 -0.02535742 0.01671792 -0.02729207 -0.00002484 0.00006974 0.00014064
204 1 16.504619 31.509791 15.481516 -0.03453498 0.01170254 -0.04180145 0.00010090 -0.00004054 0.00010814
205 1 11.085054 7.708031 33.394605 0.06483956 0.02722726 0.03293488 0.00001962 -0.00007950 -0.00014853
206 1 21.367936 11.395682 5.167630 -0.00957531 -0.04305704 -0.02616291 -0.00009196 0.00023773 0.00008318
207 1 22.248840 17.652003 9.579304 -0.00671562 -0.01271172 0.03658504 0.00017521 -0.00011718 -0.00001969
208 1 36.815261 35.243840 37.791529 0.00062306 -0.00728429 -0.00940396 -0.00001296 0.00013225 -0.00014681
209 1 34.032090 12.537730 23.430240 0.03611288 -0.04125145 -0.02016541 -0.00057273 0.00023569 -0.00047927
210 1 16.210235 19.102366 28.707837 0.05768675 0.04700368 -0.00370193 0.00019096 -0.00016706 -0.00049371
211 1 0.586048 34.286426 16.719549 0.02757481 0.00128710 -0.00095399 792.38632402 -2731.34994751 1098.36801921
212 1 0.392684 16.569174 29.450528 -0.05393722 -0.02132491 -0.02264342 -0.00012820 -0.00007803 0.00022640
213 1 34.357084 7.124964 32.776823 0.01350044 0.03490641 -0.05144745 0.00006365 0.00018050 0.00015450
214 1 27.348915 1.261663 19.998123 0.01127866 0.01681223 0.02962029 0.00012766 0.00009994 0.00018768
215 1 34.293914 3.789770 2.382677 -0.00481345 0.02962033 0.00259362 0.00005601 -0.00013538 -0.00011895
216 1 0.860482 12.078444 15.464197 -0.00578033 -0.02120399 0.00765139 -0.00008693 0.00016088 0.00015910
217 1 7.990550 2.920456 25.663142 -0.07345167 0.02505430 -0.01007381 0.00005422 -0.00003089 0.00002325
218 1 11.269739 35.450563 35.749698 0.01813695 -0.01199975 -0.01928651 -0.00003163 -0.00012888 -0.00009184
219 1 9.873084 27.099030 28.627160 0.05390337 -0.03078612 0.05322035 -0.00020881 -0.00002240 0.00003214
220 1 37.661639 24.535505 6.405020 -0.00537485 -0.02973916 -0.02614778 -0.00005254 -0.00002171 -0.00010312
221 1 12.213861 17.125305 14.166790 -0.01585665 -0.01397321 0.01744321 -0.00011588 -0.00012069 0.00044622
222 1 17.806525 27.801747 33.739593 0.01023426 0.01474304 -0.04128665 -0.00001738 -0.00010488 -0.00001944
223 1 30.635056 30.559645 23.647612 0.06779172 0.02609467 -0.02727291 -0.02256456 -0.00601235 -0.00021600
224 1 0.572075 24.976463 9.590318 0.04242673 0.00230602 -0.02130436 0.00017668 0.00032314 -0.00023147
225 1 17.778485 9.625902 11.685586 0.01606452 0.03791238 0.02346448 -0.00000378 -0.00000457 -0.00005730
226 1 2.902794 34.737313 3.012224 0.07935635 0.01738547 -0.06528482 -0.00023224 -0.00002749 0.00004897
227 1 12.440555 12.133803 3.454299 -0.00563600 -0.02310874 0.02485991 0.00013347 0.00009835 0.00010608
228 1 0.785355 31.747324 6.264631 -0.00529670 -0.02877906 -0.01565910 1193.29905207 484.21359949 524.82965599
229 1 20.163683 5.725229 13.324890 -0.04468318 0.00023589 0.02469323 0.00012276 -0.00005241 -0.00013864
230 1 5.993262 19.682091 1.242507 0.01593696 -0.02571630 -0.00461925 -0.00006028 -0.00012589 0.00002477
231 1 10.715018 12.716751 6.622746 0.03601320 -0.00921231 -0.03144541 -32768.21432921 -40521.37076587 99948.21512648
232 1 4.651292 23.115452 17.297279 -0.01116219 0.01539840 -0.01927602 -24.81969521 34.70555088 -27.55665492
233 1 5.197621 16.107625 16.036210 0.03839487 -0.04523926 0.00255635 17729.75920614 22655.96430553 3449.27777191
234 1 35.219591 2.301514 35.007644 -0.02616025 0.04256034 0.00121012 -0.00021018 0.00021942 0.00064605
235 1 20.190885 36.278463 4.197779 -0.02464795 0.04916415 0.01366744 -0.00009200 -0.00011829 -0.00010149
236 1 0.080425 8.138092 12.936751 0.02413104 0.00863371 0.05247986 0.00000330 0.00011805 -0.00005341
237 1 27.793602 28.546448 10.898359 0.05835707 0.00226005 -0.01323350 0.00013762 -0.00009916 -0.00005291
238 1 3.912665 3.799919 32.305645 -0.01424107 0.02852250 -0.04537182 -0.00005820 0.00003419 -0.00012714
239 1 35.471279 20.508786 11.292083 -0.00304950 -0.05518930 0.01073200 0.02285489 0.02967514 0.04272222
240 1 1.839514 21.727241 17.439576 -0.03180504 0.01546089 0.01393288 0.00032782 0.00028196 0.00037641
241 1 15.210235 31.547439 14.255137 0.00296900 0.03170847 0.00393596 -0.00000191 0.00003245 0.00004804
242 1 36.255059 17.574370 9.006756 -0.04353107 0.01979503 0.00238934 -0.00129267 -0.00078194 -0.00071785
243 1 32.662090 30.028110 14.585379 0.00125484 0.06464354 -0.01808051 -0.00009802 0.00003015 -0.00012395
244 1 17.007765 24.679585 3.136898 -0.03732886 0.00377734 0.03825915 -0.00074811 0.00006453 -0.00053575
245 1 20.827286 21.216394 10.481455 -0.01613128 0.03439986 -0.00913707 -0.05112129 0.07430004 -0.00196957
246 1 7.754944 13.082194 3.191829 0.04815989 0.02830321 0.04250629 -0.00064619 0.00003675 -0.00041186
247 1 11.403140 34.590698 15.312808 0.02993462 -0.00190356 0.03171763 0.00004937 0.00005321 0.00002777
248 1 21.027289 4.069539 24.237592 0.01900282 -0.05064265 0.07286305 0.00001539 -0.00002081 0.00018326
249 1 11.945988 35.356567 5.955291 -0.00231926 -0.00858924 0.02464139 0.00194945 0.00062387 0.00130369
250 1 12.599049 33.260237 25.014791 -0.05174164 0.01401314 -0.05302678 0.00008794 0.00005760 0.00010961
251 1 28.957067 13.056092 12.560832 -0.02182687 0.03024307 -0.01436793 0.00009463 0.00003109 -0.00005969
252 1 14.715874 15.273455 13.224537 -0.00093004 0.04859472 0.04609552 0.00010837 -0.00032136 0.00028307
253 1 2.673582 27.006168 29.032814 -0.01044957 -0.01138709 -0.06969234 -493.24378120 1200.32061200 92.23156965
254 1 13.198686 23.135956 6.692432 0.01779767 0.02028931 -0.01365955 -0.00009228 0.00019961 -0.00041457
255 1 25.181992 25.336136 5.047715 -0.05516627 0.02828731 -0.03852890 0.00058078 -0.00045326 0.00070336
256 1 10.593901 33.540726 0.941612 -0.02637080 0.03676135 0.01139031 0.00105292 -0.00075359 -0.00196521
257 1 14.623398 29.615862 30.395404 -0.09268963 -0.00188027 0.04458678 0.00012418 -0.00008418 0.00010128
258 1 37.373177 27.295823 7.552477 -0.02108895 -0.03247283 -0.01783691 -0.00004690 -0.00055322 0.00011037
259 1 36.993044 13.234491 11.244797 0.00995013 0.00886052 0.03810636 -0.00007763 -0.00014204 -0.00002481
260 1 0.748708 17.675000 35.607627 -0.00625434 0.02913392 0.02037701 0.00008914 -0.00006728 -0.00018718
261 1 28.009342 20.085667 16.179359 0.07329882 -0.02240061 -0.00661968 -0.00010249 0.00014630 0.00024336
262 1 11.909459 1.579734 13.085823 -0.02416570 -0.01173878 0.01520711 -0.00022988 0.00013248 0.00008252
263 1 25.121761 28.574666 23.298835 0.05598100 0.03233498 -0.02940778 0.00126655 0.00052309 0.00012565
264 1 31.808576 3.278823 9.697424 -0.03680561 -0.00345907 -0.04915662 0.00011054 0.00015909 0.00003008
265 1 10.738112 27.475843 30.036895 0.02163153 -0.07245249 -0.02862258 0.00009870 0.00004977 -0.00013445
266 1 10.270781 4.441870 8.979069 -0.04898112 -0.00040674 0.01544816 0.00012227 0.00010078 0.00002293
267 1 10.319412 3.452790 28.865291 0.00059175 -0.02068072 0.00845455 0.00000333 0.00008958 0.00002386
268 1 1.515956 19.956505 35.925506 0.01531772 0.02577908 0.01379227 0.00003078 -0.00000438 0.00002503
269 1 10.458842 2.510906 34.032150 0.00652830 -0.00069734 0.03210626 0.00014276 0.00003008 0.00010461
270 1 23.528023 31.658177 18.385088 -0.02177216 0.02124889 -0.01819599 -0.00022927 -0.00035160 0.00040714
271 1 25.012329 18.055686 25.327487 0.01352861 -0.03926254 -0.00379462 -0.00013785 0.00015230 0.00002274
272 1 19.703220 7.752560 27.313536 -0.06282816 -0.02075161 -0.00498766 -266.34441600 -39.60211629 694.35747758
273 1 20.253899 19.551788 18.123593 -0.04147080 -0.01240087 -0.00080993 0.00003205 0.00001112 0.00005972
274 1 34.703368 23.360528 27.333498 0.02790419 -0.00728012 0.01327360 0.00001885 -0.00030552 -0.00001729
275 1 17.152556 5.936327 20.322062 0.02452986 0.04394138 0.00709630 -0.00001842 -0.00000911 0.00000498
276 1 11.644068 23.444537 13.856382 0.03068269 -0.00010333 -0.04106939 -0.00007135 0.00013969 0.00027609
277 1 15.954781 1.770855 22.411153 0.03439203 0.00369789 -0.02642714 0.00011678 -0.00003795 -0.00009155
278 1 8.792498 9.679807 14.729927 -0.02206675 -0.05912244 0.01680889 -0.00002359 -0.00007457 -0.00004291
279 1 24.667919 23.027755 35.649932 0.00291792 -0.01716662 -0.03898390 -14.08107642 -4.72349279 1.89054500
280 1 34.895198 29.057667 19.863735 -0.02433765 0.01017662 -0.02259440 0.02671677 -0.00291985 -0.00186459
281 1 4.551265 9.158685 16.606136 0.06250302 -0.04529973 -0.00799496 -0.00003265 0.00006790 -0.00000982
282 1 35.906057 31.969400 13.758135 -0.00441997 -0.00720005 -0.05807580 -0.00054796 -0.00035597 -0.00040847
283 1 35.817068 36.100074 11.096665 0.06540837 0.06178551 0.02177618 -0.00020156 -0.00016627 -0.00007458
284 1 3.308287 34.221450 25.066009 -0.03839732 0.01260895 -0.03139108 -245779.35913019 1571486.17613117 148141.26838699