ITEM: TIMESTEP
0
ITEM: NUMBER OF ATOMS
4593
ITEM: BOX BOUNDS pp pp pp
0.0 40.283462
0.0 40.283462
0.0 40.283462
ITEM: ATOMS id type x y z vx vy vz fx fy fz
1 1 30.160784 33.586067 16.866670 -0.03492046 -0.01781917 -0.00457591 0.00000781 -0.00004577 0.00016459
2 1 3.945061 15.841026 18.082073 0.02417319 -0.00915991 0.02244286 0.00003087 -0.00008519 -0.00007589
3 1 13.917001 7.026139 15.652475 0.06164727 0.01626980 0.01072480 0.00000781 -0.00000428 -0.00009909
4 1 11.917307 37.259199 25.569725 0.01520016 0.06319416 -0.00866060 0.00010146 -0.00019704 -0.00011459
5 1 17.756911 30.397582 11.169008 -0.03214859 0.00246991 -0.01540967 0.93489339 -0.85569727 -0.38474825
6 1 37.662784 30.468260 31.674295 -0.01456317 0.00110554 0.05564735 0.00005764 0.00002327 -0.00002238
7 1 11.484477 17.440017 31.443050 0.07310130 -0.01582852 -0.04139094 0.00007437 0.00018482 0.00008087
8 1 35.521104 13.988658 21.715651 -0.01638822 -0.01593016 0.02933701 0.00007491 -0.00002051 0.00001395
9 1 29.993689 31.118070 22.197253 -0.00407004 0.03947980 0.00823847 0.00011351 0.00004110 0.00006530
10 1 0.445427 3.404003 3.513485 0.02037309 0.02345388 -0.01506049 -0.00012642 -0.00001849 -0.00020202
11 1 38.288229 10.695592 17.603131 0.01651615 0.00187677 -0.00808739 -0.00012061 0.00003430 0.00012093
12 1 37.245538 0.064906 9.869396 0.01104443 0.01914005 -0.05253396 7629.38230731 -42137.87775908 36959.59750389
13 1 4.980975 0.978987 9.303693 0.04889842 -0.01435566 -0.02713119 0.00000476 -0.00013858 -0.00001560
14 1 37.724587 34.986476 1.952591 -0.02509530 -0.02847021 -0.04387998 0.00025420 -0.00004330 0.00023419
15 1 26.533743 4.101367 5.763918 -0.05388272 -0.02532331 -0.07814861 233.65020358 118.04976476 9.48436124
16 1 37.752331 24.927885 29.347849 0.02849103 -0.04861435 0.08396295 -0.00002150 -0.00009122 -0.00004860
17 1 31.071065 39.240121 0.553159 0.03043488 0.00225033 -0.05425859 0.00002547 -0.00009640 -0.00008624
18 1 37.118590 15.698781 14.145220 0.00723546 0.01801675 -0.01129319 0.00012657 0.00003492 -0.00023615
19 1 22.483832 26.325292 10.695262 0.00933858 -0.02608820 -0.02608914 0.00011414 0.00001339 -0.00011497
20 1 17.138630 25.082987 19.341824 0.00865917 -0.02621890 0.02903843 -0.00005359 -0.00009182 -0.00019547
21 1 20.615987 17.249158 32.441762 -0.04339946 -0.00333643 -0.00495790 -0.00001697 -0.00004641 0.00006280
22 1 23.983277 24.416226 24.458880 0.02081580 0.07075303 -0.04312293 -0.00002249 0.00029323 0.00000582
23 1 19.354949 11.077993 9.651110 0.00779991 -0.02590160 0.00645006 -0.00005143 -0.00006129 -0.00007186
24 1 6.041127 27.094577 10.047304 0.04262089 -0.02021813 -0.02004026 -0.00004704 -0.00007752 -0.00010770
25 1 30.355286 15.309041 32.698368 -0.01701087 -0.00460360 -0.07386183 0.00003430 0.00000651 -0.00006145
26 1 25.745709 20.886852 15.832261 -0.05713090 0.00670727 0.03713425 -0.00012144 0.00021174 -0.00001011
27 1 16.312688 7.255293 31.598366 0.01656407 0.00845307 -0.02504393 -0.00011411 -0.00010032 0.00017659
28 1 0.402512 22.362872 8.560597 -0.02734190 -0.02058963 0.00257287 0.00010505 0.00012238 -0.00011287
29 1 6.097301 39.540683 35.208380 -0.04051104 0.05042781 -0.07184770 0.00006057 0.00003634 -0.00004835
30 1 29.331570 16.569268 13.141934 0.00561358 0.04424544 0.04037470 0.00002398 -0.00004749 -0.00015588
31 1 37.095742 0.368869 39.326709 0.01513182 -0.02176466 -0.00463946 0.00020152 -0.00006246 0.00000543
32 1 4.491909 10.448700 23.658417 0.00082272 0.00358373 -0.02415286 0.00007258 -0.00005503 0.00004225
33 1 12.617688 35.474207 26.263484 0.00995555 -0.00647031 -0.02437764 0.00003808 0.00004419 -0.00019975
34 1 8.698909 15.130725 18.570786 -0.02383906 -0.01896549 -0.04530366 0.00025276 0.00008867 -0.00009134
35 1 24.071908 35.140679 32.537764 -0.00725933 -0.04162531 0.01722950 -0.00003460 -0.00011155 0.00017546
36 1 26.439350 15.935572 1.594488 0.03325352 -0.04791662 0.05384533 -0.00013255 -0.00008504 -0.00011308
37 1 26.003357 20.773481 34.475361 0.02014591 -0.00481357 -0.01440451 0.00003946 0.00005535 0.00013782
38 1 13.077833 22.721848 16.241002 0.00071514 -0.01200110 -0.00643912 -0.00014182 -0.00013265 0.00001559
39 1 15.740792 21.136483 36.293016 -0.09562977 0.01748816 -0.02812331 -0.00009048 -0.00015695 0.00001977
40 1 17.730313 33.754555 12.104067 -0.04106419 -0.04709670 -0.03694271 0.00018461 0.00256355 0.00068342
41 1 18.670194 34.090302 14.576037 -0.00470290 -0.01812798 0.05124714 -0.00010178 0.00009530 0.00023777
42 1 19.202072 27.033505 27.494609 -0.00723889 0.01267204 -0.00259364 0.00013295 0.00026808 0.00012925
43 1 13.077143 6.207066 35.706383 -0.01272106 -0.00079209 -0.06430972 0.00012940 -0.00004741 -0.00000469
44 1 17.936779 23.922533 9.731745 0.00861436 -0.02849785 0.01579098 -0.00006696 -0.00016823 0.00007997
45 1 0.339493 8.688321 20.644313 -0.00312431 -0.03815545 0.01264712 0.00005554 -0.00000253 -0.00012115
46 1 30.268754 1.350211 23.948524 -0.02837530 0.01195892 0.02353712 -0.00011332 0.00003445 -0.00002151
47 1 10.448222 18.863732 10.886804 0.07995617 -0.00323486 0.07283212 0.00007456 0.00000087 -0.00005814
48 1 11.116468 34.741007 35.923733 0.04257226 0.01312900 0.06518184 0.00006425 -0.00005058 -0.00007824
49 1 34.057767 6.279834 34.906314 0.04769784 -0.03487575 -0.05069204 0.00000251 0.00016258 -0.00003354
50 1 11.230203 33.976293 0.166703 -0.03916281 -0.02170542 0.03345780 -0.00000796 -0.00002496 0.00028082
51 1 31.200810 19.042512 18.845331 -0.06448465 0.02991680 0.01270196 -0.00012308 0.00018103 -0.00010492
52 1 19.284849 15.174728 3.343834 0.06011576 -0.02140056 0.02220731 0.00002032 -0.00009859 0.00000064
53 1 10.325115 26.134525 31.259496 0.04565356 -0.01667126 0.00293133 0.00003970 -0.00008955 0.00010788
54 1 13.364593 30.983226 22.998622 -0.01562680 0.00981323 0.03164072 0.00001096 -0.00001600 0.00002725
55 1 14.504265 33.242725 25.676470 -0.05199900 -0.01290891 -0.03008288 -0.00000488 -0.00009292 -0.00012983
56 1 19.242343 16.572697 11.142324 -0.01993278 -0.04182647 -0.00126441 -0.00008596 -0.00013250 -0.00017744
57 1 35.834084 3.952866 32.409182 -0.02014301 -0.00623489 -0.02856129 -0.00007704 -0.00010161 -0.00007000
58 1 19.701885 23.403066 33.096197 0.04198351 -0.03268204 -0.03451145 -0.00001393 -0.00012374 0.00020229
59 1 39.900676 13.807478 0.404827 -0.03770753 0.04343968 0.01130044 -0.00003842 -0.00007559 0.00000856
60 1 38.619381 14.610967 13.917892 -0.00534453 -0.03567989 -0.04432535 0.00003293 0.00004173 -0.00008711
61 1 31.826845 19.631807 24.971283 -0.01587272 0.05255590 -0.01851569 -0.00006625 -0.00005212 -0.00014498
62 1 38.798567 3.804061 23.507756 0.02763131 -0.05297462 0.01796911 -0.00003301 -0.00011455 0.00027425
63 1 33.814839 24.070834 31.699822 0.03302267 -0.01569636 0.00776104 -1698586.49632912 1356796.63718363 4347001.08921046
64 1 26.198228 2.165782 33.416116 0.00728056 -0.02760936 -0.04783800 -0.00010023 0.00005070 0.00004261
65 1 39.494194 12.506913 26.919944 0.02356698 0.01483524 -0.03248883 5595833.42517849 -5117557.29768105 1729918.01070508
66 1 31.483331 31.084941 39.851588 -0.03950824 0.03652126 0.05598837 0.00012310 -0.00011301 0.00015116
67 1 6.049428 26.512215 11.245436 -0.01538757 0.09481750 0.03426298 -0.00007545 -0.00008418 0.00011344
68 1 31.298480 23.956065 38.652519 0.01697685 -0.00480310 -0.01502474 0.00022797 -0.00011199 0.00007209
69 1 12.076886 20.907726 29.317947 -0.02623868 -0.05950315 0.02517697 -0.00005069 -0.00005014 -0.00010955
70 1 1.644475 15.575002 17.935011 -0.03500115 -0.01828819 -0.04045417 0.00010578 -0.00014751 -0.00000498
71 1 23.056800 32.286093 39.800791 0.01354471 0.01557819 0.02012488 1504877.92270026 4341687.40906983 3804021.71975694
72 1 23.014535 22.250916 35.470333 -0.01440750 0.00039152 -0.00005573 0.00005162 0.00013615 0.00016586
73 1 37.062798 28.285298 25.454292 0.00619308 0.02439698 -0.01958537 0.00008647 0.00001544 -0.00001747
74 1 23.651011 14.918405 16.138929 0.01329318 0.01789320 -0.00386702 0.00020352 -0.00002667 0.00004695
75 1 28.545744 35.240339 29.638150 -0.00191556 -0.07967293 0.01172262 0.00002555 0.00004614 0.00000287
76 1 14.066984 14.943417 5.356775 -0.00508409 -0.00241161 -0.02144535 0.00005282 -0.00005670 -0.00017504
77 1 20.613676 38.262436 33.322275 0.00858929 0.02652938 0.00462407 0.00000670 -0.00008661 0.00001207
78 1 13.867572 28.332267 21.119682 -0.00687624 0.01090152 0.03538469 -0.00005830 -0.00002608 -0.00000676
79 1 21.390004 28.224148 11.129089 -0.01824918 0.03761923 -0.00793013 0.00109116 -0.00046488 -0.00021684
80 1 37.099219 10.793110 13.765081 0.00786766 0.06273932 0.02181484 -0.00002905 0.00000365 0.00018091
81 1 32.880406 30.907348 10.743694 0.04127012 -0.01183473 -0.01157117 0.00002246 0.00019690 -0.00006418
82 1 11.143476 26.324578 24.566228 0.00501659 -0.00215001 0.05445514 0.00005472 -0.00007368 -0.00001904
83 1 6.443613 24.422947 39.712887 0.02839346 0.01982505 -0.03748090 -0.00020179 0.00005541 -0.00000961
84 1 22.884616 8.647364 25.944769 0.05498303 -0.00554709 -0.05718033 -0.00003331 -0.00009222 -0.00008914
85 1 39.366089 3.287328 32.979622 0.00399126 0.00134327 0.00564429 -0.00003830 0.00003536 0.00011942
86 1 35.317543 35.001531 35.631683 -0.04174831 -0.01169656 -0.03659214 0.00011919 0.00022563 0.00001084
87 1 17.084736 15.303637 33.329079 0.00242222 -0.02585133 0.04088460 0.00018917 -0.00005458 0.00007014
88 1 38.787516 35.120030 10.118279 0.00418313 -0.01290536 -0.03432876 0.00000459 -0.00018423 -0.00006489
89 1 5.933312 36.715593 7.508594 0.02591084 0.05648844 0.03117717 -43832.57208716 23821.56368118 -18481.89108942
90 1 34.568502 30.865542 25.195044 0.01609790 -0.01892669 -0.01314939 -0.00000211 0.00024011 0.00018257
91 1 31.222646 9.102906 39.014621 0.00856885 -0.01901951 0.02082113 -0.00006839 0.00004840 0.00005111
92 1 5.929554 35.512045 39.340986 0.00342181 -0.02494709 -0.06982541 0.00009958 -0.00005821 0.00004283
93 1 15.352959 7.295527 30.539852 0.01905088 0.00962296 0.00969370 -0.00004688 -0.00002063 0.00010528
94 1 20.904366 35.605600 3.048162 0.02381520 -0.00478122 -0.03508615 -0.00004900 0.00020374 0.00015808
95 1 17.048722 31.874054 8.457363 0.01260575 0.04859212 -0.00163423 -0.00023822 0.00006193 -0.00021872
96 1 8.101815 31.137978 39.818164 0.04803866 -0.01801646 -0.00663156 0.00001219 0.00001522 0.00012101
97 1 25.925469 19.893655 27.189407 -0.03504452 0.03036877 -0.01142296 -0.00011577 0.00010267 -0.00004627
98 1 34.646258 19.675147 35.828430 0.01042990 -0.01131396 -0.03971364 0.00016592 -0.00018036 0.00001671
99 1 26.894278 34.321891 36.714723 -0.04571749 -0.03817531 -0.01697387 0.00023242 0.00006605 -0.00005366
100 1 38.013152 33.589548 33.839865 -0.03279090 0.01342072 -0.00737112 15231002.26074594 -4068327.70984110 21622993.80973399
101 1 34.787963 34.573246 7.786408 0.00704292 0.01344344 0.01007465 32968.95717515 3411.54708821 7794.71911909
102 1 0.381752 7.247044 14.699165 0.00230066 -0.02213274 0.00873040 -0.00015297 0.00016098 -0.00000054
103 1 30.599948 29.096098 34.393931 0.04835240 0.01679423 0.03031274 0.00017743 0.00029043 -0.00005414
104 1 14.129519 8.172986 24.404001 -0.02148450 -0.01061207 0.00230591 -0.00001820 0.00021667 -0.00009912
105 1 15.135840 31.420458 18.103987 -0.03898289 0.05178422 -0.00114809 0.00010263 0.00002196 0.00013583
106 1 35.278511 17.249900 31.363262 -0.00036642 0.03755225 -0.03557318 0.00006690 -0.00005809 -0.00004442
107 1 29.132266 1.133515 1.871147 0.03861058 -0.00293067 -0.01643520 0.00000383 -0.00013772 -0.00012640
108 1 8.141357 25.966574 36.807183 -0.00877255 0.00535295 0.05828167 -0.00016360 -0.00007142 0.00011648
109 1 5.985796 30.821247 33.628031 0.02946614 0.03142589 -0.02349647 -0.00011642 0.00005855 -0.00000656
110 1 18.279845 1.034848 29.038861 0.05926974 0.05530285 0.01739766 0.00000575 0.00007375 -0.00009273
111 1 26.893857 8.120775 20.499214 -0.04675015 0.04001973 -0.00482735 677.31051420 4492.06601885 -1150.38725071
112 1 28.703550 16.567969 4.730787 0.02819388 0.00062108 0.03399503 -0.00007251 -0.00001533 0.00019976
113 1 35.797168 20.963081 32.544377 0.00093040 -0.04606095 0.02006020 0.00114279 -0.00176730 0.00054500
114 1 21.847348 15.360772 2.882710 -0.00296413 -0.03108049 -0.01779074 -0.00016175 -0.00013909 0.00002876
115 1 3.044681 7.108767 29.041264 -0.02862147 0.01667771 -0.00772027 0.00009183 -0.00030516 0.00007686
116 1 29.241007 0.268745 36.605959 -0.02639085 -0.02080732 0.00570293 -0.00003323 0.00021312 -0.00000316
117 1 7.853179 33.565670 29.446626 -0.01365357 0.01035828 0.02783243 0.00000176 0.00007992 0.00001104
118 1 2.739214 9.837529 11.765259 -0.01664201 -0.04903468 0.02999953 -0.00007515 -0.00012770 -0.00006637
119 1 19.958963 19.075086 36.057664 0.00109755 0.01530992 -0.03755964 0.00009265 0.00009369 -0.00012145
120 1 25.193106 31.304636 12.404871 0.00291178 -0.01457149 0.00078633 -0.00011444 0.00004656 -0.00000517
121 1 20.418192 19.049322 7.644905 0.00477995 -0.01894587 0.02198460 0.00001234 0.00007388 -0.00006555
122 1 23.215367 10.537151 24.011701 -0.06743421 -0.00521361 0.04223571 -0.00013686 0.00001639 0.00038327
123 1 18.490811 6.506481 9.688528 -0.05768680 -0.00367536 0.03212058 0.00002022 0.00016976 0.00009126
124 1 31.674795 23.682762 18.910073 0.02232138 0.03258670 0.01953214 0.00003909 0.00019964 0.00002203
125 1 7.849863 25.752589 18.041696 -0.00793130 0.01305574 0.00386664 0.00008369 0.00002679 0.00000573
126 1 17.082622 24.678230 0.963622 -0.03640096 -0.02356152 -0.02800737 -0.00020416 0.00009306 -0.00018126
127 1 7.939656 25.147469 26.430414 -0.02001242 0.06291480 0.01543122 0.00004395 -0.00009601 -0.00001207
128 1 8.379318 20.692083 10.573284 0.02026524 0.01871749 -0.04897197 0.00016049 0.00009168 -0.00009823
129 1 3.939219 20.438394 15.631676 -0.01215975 0.02464535 0.03514575 -0.00014342 0.00005896 0.00015575
130 1 21.841481 16.904810 15.124381 0.01936996 0.03814574 0.01076918 0.00003635 0.00013970 0.00006734
131 1 13.468616 26.595399 17.661113 0.01281633 0.04358046 -0.03841843 -0.00016726 -0.00015948 0.00015994
132 1 26.227739 31.195952 12.776815 -0.04755452 0.02166459 0.03716373 0.00005514 0.00000917 0.00012016
133 1 15.693795 25.580807 9.109249 0.03530459 0.09711613 -0.01877559 -508351.92533039 -529319.81087508 -422348.09824550
134 1 21.834976 26.761759 23.049964 -0.03767790 -0.00908978 0.00314825 -0.00008101 0.00005418 -0.00003484
135 1 13.122549 25.635949 10.237385 -0.01452336 -0.01345168 0.03109802 0.02241999 -0.00034569 -0.00969292
136 1 36.084526 26.143057 36.700409 0.00337633 0.03595403 -0.03596136 151.43976269 1283.32020801 39.07672800
137 1 19.206362 20.174447 29.780492 -0.07782910 -0.02273575 0.01082607 -0.00006403 -0.00000369 0.00001554
138 1 22.321225 0.591517 9.592710 -0.02871658 -0.04139641 0.00887176 -0.00017906 -0.00006236 -0.00000231
139 1 24.141498 2.180127 15.797062 -0.00327124 0.02387832 -0.03133913 -0.00000539 -0.00003249 0.00010389
140 1 2.830760 7.438967 2.681087 0.02014672 -0.01110250 -0.00403490 0.00004795 0.00016260 -0.00000006
141 1 29.995616 37.440513 17.031095 -0.00245687 -0.00981192 0.02630101 -0.00005620 -0.00009284 -0.00009837
142 1 8.770758 16.604779 21.996457 -0.04635159 -0.00596406 -0.07077936 -0.00016797 -0.00012496 -0.00000745
143 1 0.181813 15.232666 34.503250 -0.00495791 -0.05279801 0.07302495 -0.00006709 -0.00014454 0.00012507
144 1 33.747319 27.060684 38.976147 -0.04000179 -0.02756357 -0.01172865 -0.00175322 0.00067345 0.00161936
145 1 26.241828 26.200537 5.913514 0.04425618 0.02759585 -0.01532679 -0.00004931 -0.00002840 -0.00010429
146 1 15.668952 15.287268 23.171189 0.00002888 -0.02803892 0.02506479 0.00000921 0.00005301 0.00006738
147 1 38.734637 21.076185 14.507925 -0.00416321 0.03758946 0.00485093 -71.18403339 -75.96733613 16.03720531
148 1 13.714451 10.157922 33.133208 0.00309352 0.02259925 -0.00072943 0.00012087 -0.00005996 0.00006887
149 1 11.469267 12.787866 33.053980 0.04455869 -0.02739553 -0.02255754 0.00001915 -0.00011871 -0.00001899
150 1 20.609052 27.204233 22.248036 -0.01499910 0.00723171 0.08393132 -0.00000866 -0.00002166 -0.00004862
151 1 37.291819 19.547928 23.195991 -0.01521940 -0.03925764 0.00389967 0.00006691 -0.00010220 -0.00020413
152 1 38.539645 39.766830 37.218628 0.06594357 -0.02804647 -0.00116424 0.00002479 -0.00001098 0.00004084
153 1 36.337656 22.690478 9.527434 0.01653563 0.02425477 0.04306170 -0.00018772 0.00013019 -0.00007039
154 1 25.814264 20.653055 20.051473 0.00846676 0.03379765 0.01526130 0.00017161 0.00003714 -0.00023690
155 1 21.911165 39.459390 31.360732 0.01362627 0.02624477 -0.00304128 0.00005772 -0.00026661 0.00017315
156 1 0.068894 4.166086 25.101203 0.03456165 -0.02901940 0.01465211 -0.00006192 -0.00001892 0.00006227
157 1 12.324476 35.546933 29.666132 0.00108178 0.00945378 -0.07531759 0.00005018 0.00029838 0.00007105
158 1 26.926476 4.722460 13.203463 0.03160522 -0.02190160 -0.00328593 -0.00000682 -0.00019871 0.00015147
159 1 0.047374 5.078266 5.035306 0.01184479 0.00247219 0.00209896 -0.00007320 0.00007096 -0.00009241
160 1 5.281928 39.386324 32.902328 -0.00928057 -0.00524270 0.00214401 317.26241627 280.37154546 443.81510261
161 1 24.417292 21.836841 14.207188 0.01092069 0.01867527 -0.04277174 -0.00000213 0.00002684 0.00009681
162 1 18.419597 7.265940 39.919290 -0.03522734 0.01354001 0.03989993 -0.00000662 0.00003808 0.00003643
163 1 39.122591 25.910531 29.016561 -0.03109621 0.05359409 -0.00136674 -0.00000667 0.00007028 -0.00022809
164 1 19.474802 28.669614 8.371274 0.00698399 0.03973243 -0.00811945 -1.95478253 -0.92056604 10.43072577
165 1 9.309997 31.006603 1.675059 -0.02945267 0.02938494 0.03456411 0.00001757 -0.00004828 0.00006736
166 1 27.831860 8.175350 24.080936 0.05444425 0.01111948 0.02679244 0.00065226 0.00005150 0.00230779
167 1 32.628762 3.283654 29.368704 -0.01227527 -0.01047321 0.12569025 0.00006553 -0.00003250 0.00015267
168 1 20.277357 36.924823 36.298659 -0.00065247 0.01948934 -0.01481368 0.00003742 0.00004261 -0.00014254
169 1 27.590886 2.554787 33.473709 -0.02629018 0.02715778 0.01072392 -0.00006968 0.00002326 -0.00008320
170 1 9.269674 36.535842 39.969652 -0.02584637 -0.00619592 0.00070679 0.00017377 -0.00005194 -0.00004671
171 1 24.155931 2.392504 24.503166 -0.04516226 0.08640371 0.02963080 0.00004502 -0.00003969 -0.00011770
172 1 13.826424 24.476853 5.833484 -0.01486723 -0.00689346 0.03926431 -0.00086073 -0.00059648 -0.00147008
173 1 14.161474 19.570707 31.513281 -0.01678976 0.01827887 -0.05938619 0.00003473 -0.00006409 -0.00006075
174 1 32.210757 9.678380 29.651826 0.01488058 -0.01079053 -0.04572797 -0.00005996 -0.00009986 -0.00019474
175 1 31.757321 12.200170 13.171025 0.00477391 0.02569631 -0.02953943 1.83415977 -3.44961085 -2.14697297
176 1 21.856418 21.667679 24.986059 -0.02380012 0.01912176 -0.04745496 -0.00002510 0.00000085 0.00010401
177 1 8.601706 40.161634 22.784091 0.00636741 0.03332054 0.01384697 -818.59642137 -236.15779539 303.04713701
178 1 22.145733 37.881068 21.397820 -0.00634791 -0.00654709 -0.04651627 0.00019036 0.00011181 -0.00004935
179 1 36.504227 25.848224 4.512816 -0.00400519 0.00545778 0.04273084 0.00006732 0.00001485 -0.00009613
180 1 5.278323 28.734793 22.627014 0.01066851 -0.03943976 0.00469057 0.00003574 -0.00010491 0.00011375
181 1 38.854106 37.535867 17.023674 -0.05058004 -0.00962107 0.02363527 0.00001840 -0.00004392 0.00002140
182 1 5.606444 30.007929 37.638748 -0.00294461 -0.02978723 0.01872757 -351.37095470 44.95856106 -623.17251393
183 1 16.924279 17.968184 31.710898 -0.03208038 -0.01207576 0.01087373 -0.00001688 -0.00003901 0.00022528
184 1 23.860231 33.175740 36.166721 0.01524081 -0.05060752 0.02031430 0.00052388 0.00046151 -0.00182049
185 1 24.122379 1.812903 2.023192 -0.00900616 0.03162715 -0.05955532 9.67809927 8.96618678 5.05580575
186 1 14.417861 6.056118 15.320343 -0.03659378 0.03268678 0.01097065 -520.72997422 75.30671793 425.79715233
187 1 6.825509 14.405000 11.563760 -0.00597920 -0.04274357 -0.03824774 0.00003969 0.00003681 -0.00002392
188 1 0.268715 29.270404 24.694068 0.00830279 0.02086988 -0.02262330 0.00001461 0.00001803 0.00018436
189 1 23.573289 17.792291 27.997274 0.02079784 -0.00427832 -0.02931391 0.00003204 -0.00002514 -0.00017035
190 1 21.277408 14.802808 0.883623 0.02762154 -0.02888982 0.00706801 -0.00007566 -0.00008371 0.00009080
191 1 34.223230 27.832953 17.402645 0.01626594 -0.00478890 0.00283023 -0.00001273 0.00004182 0.00016759
192 1 33.576083 24.261019 32.309483 0.06217057 0.02088817 0.04536397 1701762.88811827 -1355569.31547598 -4345434.80082902
193 1 31.112482 3.153414 31.406431 0.07563184 0.02814964 0.01737770 -0.00007942 0.00002398 0.00014165
194 1 28.683204 6.689914 5.854913 -0.03596314 -0.06565386 -0.02130686 0.00135290 0.00198588 -0.00001900
195 1 29.748933 20.291991 16.504745 -0.00661661 -0.05290558 0.00512910 0.00008582 -0.00021441 0.00000123
196 1 1.240451 25.788886 2.246039 0.02431353 -0.03328199 -0.00173869 0.00006776 -0.00010609 0.00022859
197 1 13.666538 36.356582 20.795294 0.01181676 0.00991370 -0.02956417 0.00009924 0.00003379 -0.00011253
198 1 27.360859 23.832422 34.982299 0.04838577 0.00961890 -0.01323988 -0.00000448 0.00000714 -0.00001228
199 1 35.601862 30.214855 16.625608 0.03659136 -0.02170936 0.02075678 0.00014627 0.00000799 0.00012612
200 1 34.167312 14.644217 31.647487 -0.00862817 0.06387598 0.04144687 727745.94076713 -2056079.48794538 1558070.73953106
201 1 13.466694 15.952815 23.018132 0.01076905 0.03012253 0.04439334 0.92836482 0.63558351 0.48966205
202 1 19.482922 15.262670 26.525939 -0.00464814 -0.05742084 0.02403655 0.00011521 0.00006883 -0.00004767
203 1 3.316478 15.580198 5.590252 -0.02283582 -0.03190526 -0.00230801 -0.00006447 -0.00004007 0.00007667
204 1 16.554516 20.396098 17.848786 0.00771935 -0.00298288 -0.00314989 -0.00004599 0.00002955 -0.00002738
205 1 29.990892 23.526919 28.219170 0.01698348 -0.00389578 -0.02943547 -0.00039140 -0.00003087 -0.00034915
206 1 24.283275 22.992237 15.417857 -0.03400128 0.02225984 0.01484509 -0.00011867 0.00012020 0.00008501
207 1 4.303160 22.081932 28.941151 0.06032637 0.01593356 0.01161237 0.00010538 0.00012392 0.00000656
208 1 11.908911 37.897680 0.301025 -0.01230936 -0.00541377 0.02068356 -0.00012205 0.00019595 -0.00005801
209 1 23.602807 19.721104 34.068596 0.05796184 -0.00309478 0.01501904 -0.00000021 -0.00011394 0.00004930
210 1 36.050272 5.550202 19.093792 -0.03071079 0.02117311 -0.03800632 0.00012208 -0.00007581 0.00008171
211 1 12.259973 24.236205 34.097326 0.02720114 0.02786482 0.00138704 0.00016860 -0.00004976 -0.00001141
212 1 39.854787 29.099372 35.567603 -0.01168804 -0.02137320 -0.00452413 -2.28968309 0.22589484 0.52662565
213 1 34.560380 26.771423 9.760727 -0.03666017 -0.01082225 0.00522158 -0.00010024 0.00002674 -0.00006826
214 1 32.428972 0.140866 32.899956 0.00949959 0.02650688 -0.08592760 -0.00004458 -0.00000849 0.00020540
215 1 23.282761 5.743639 1.123853 0.06044120 -0.00695281 -0.03432107 -0.00041528 0.00111958 -0.00040951
216 1 26.932823 22.383366 9.327342 0.01120336 0.03816695 -0.00847584 0.00001123 -0.00000964 0.00002657
217 1 15.591351 10.724809 15.847970 -0.01033987 0.02307368 -0.00854746 0.00009808 0.00049606 -0.00004236
218 1 20.810040 5.931577 22.531282 0.03754079 -0.01620484 -0.07054357 -0.00002667 -0.00008450 0.00000083
219 1 28.052899 30.687793 15.007665 0.00613050 0.00275536 0.03693262 0.00004562 0.00000615 0.00015260
220 1 32.648569 36.722751 4.441345 -0.03054599 -0.03993713 0.00857852 -0.00024834 0.00038415 -0.00069710
221 1 39.922495 15.697855 26.728411 0.01086659 0.01489884 -0.01944336 0.00015953 0.00148124 -0.00002911
222 1 31.604574 32.407385 32.200895 -0.01895949 -0.04886307 -0.01416239 0.00001085 -0.00019795 0.00011766
223 1 35.712694 5.655559 29.553100 0.02614659 0.00699743 0.04049872 0.00018145 0.00004985 -0.00001815
224 1 15.040477 33.844039 27.869826 0.02213560 -0.03292901 0.04949418 0.00002259 0.00001420 0.00002904
225 1 37.085298 17.790314 39.310957 0.01744200 -0.00637121 0.03932265 -0.00000905 -0.00010813 0.00010117
226 1 38.503319 33.665190 6.329865 0.01953599 0.00411599 -0.02836157 0.00130866 -0.00046336 -0.00033721
227 1 26.112641 10.454381 11.330577 -0.01766253 0.01418414 -0.04103641 -0.00021724 -0.00011469 -0.00011151
228 1 37.087447 12.814107 16.716537 -0.01551491 -0.02404601 -0.00876761 -0.00003107 0.00008926 0.00021861
229 1 27.137662 33.530294 27.801580 0.01437796 -0.05542799 0.03901050 0.00001986 -0.00015920 0.00003512
230 1 21.351793 30.058774 0.110251 0.02529726 0.00831510 0.01350388 -102.96306963 -111.03452301 1.43580012
231 1 37.654057 8.763900 29.877255 -0.02367198 0.04122156 -0.01611177 -0.00004175 -0.00029515 0.00024217
232 1 35.337834 6.544599 32.390949 0.00639121 0.03914509 -0.02263218 -0.00014877 -0.00009224 -0.00002780
233 1 24.885130 20.219903 6.154547 -0.01623748 0.02853885 0.00547774 0.00010467 0.00005914 0.00001901
234 1 7.028598 18.168981 34.819953 0.00344608 0.00837585 -0.00579096 -0.00021931 -0.00009482 -0.00008358
235 1 34.942246 31.545016 18.288019 0.02764945 -0.02926043 -0.00687702 0.00006105 0.00011439 0.00009377
236 1 38.329911 37.930456 7.892480 -0.00238112 -0.01965427 0.02710924 0.00095756 -0.00115311 -0.00127328
237 1 9.826784 32.088411 13.954192 -0.00377658 0.02435147 -0.04045339 0.00011137 0.00000770 -0.00007060
238 1 29.063827 22.291946 25.766855 0.04012860 0.04575335 -0.00027912 -141.61257761 -166.06672608 -99.35716889
239 1 11.139171 1.412138 16.762621 0.02147798 -0.05280953 -0.04668162 0.00003730 -0.00011961 0.00002914
240 1 11.370214 35.462928 17.428354 0.02878484 0.00797003 -0.00338194 0.00010821 -0.00005983 -0.00011635
241 1 5.271444 33.975623 11.294655 0.03663441 -0.00650470 -0.00704676 -0.00024246 -0.00022468 0.00062861
242 1 32.611629 36.331573 11.260329 0.02259856 0.01095737 0.02427982 -0.00033939 0.00029620 0.00069530
243 1 5.585607 28.789135 38.599494 0.01060263 0.03499561 0.02113815 1.45891192 85.32516778 -67.25986880
244 1 0.550940 21.066607 30.426833 0.00091532 -0.01738424 -0.01318911 0.00002989 -0.00023205 -0.00006596
245 1 19.141762 14.898208 34.037158 -0.01114307 0.06439035 -0.00055475 -0.00006824 -0.00010125 -0.00015291
246 1 5.992228 10.627372 4.833942 0.05057641 0.03453369 0.03429774 -0.00007989 -0.00001929 0.00018144
247 1 33.836536 19.128450 15.941899 -0.02034900 0.02488695 0.11700086 -0.00010633 -0.00004264 0.00020333
248 1 13.057126 27.302608 28.769593 0.01556570 0.03599797 0.01692201 0.00002908 -0.00005717 0.00000409
249 1 18.896638 22.871418 21.337041 0.01546933 0.00386783 0.01606191 0.00000595 -0.00001108 -0.00014251
250 1 3.549594 37.168580 35.962680 -0.01818133 -0.03575846 -0.03130193 -0.00057845 -0.00081614 0.00101352
251 1 39.376629 15.508903 30.087344 -0.04639948 0.00314809 -0.03804170 0.00019534 0.00088160 0.00069970
252 1 36.179715 32.772315 39.193276 0.02904082 0.02322942 -0.02057240 -0.00002509 0.00001014 0.00028549
253 1 32.363468 34.884841 30.869546 -0.03470929 0.01470286 0.05277851 -0.00024813 -0.00004844 0.00008351
254 1 24.200678 22.033212 36.959627 0.04094451 0.01643802 -0.00311631 0.00014885 0.00004821 -0.00005652
255 1 33.846729 6.353636 32.297124 0.03544070 0.01117482 0.01145653 -527.77089760 -137.19076227 2571.89859790
256 1 38.407380 28.487952 27.998988 -0.00376101 -0.01930034 0.02975969 -0.00002975 0.00001771 0.00004842
257 1 7.951434 9.546884 26.283336 -0.02672264 -0.00904143 0.01368275 0.00003528 0.00003195 -0.00013353
258 1 28.990792 33.539338 39.024661 -0.00133530 0.03347661 0.00340866 3248.62951461 5840.49801546 30.78808152
259 1 1.234913 18.064154 32.321653 -0.06676516 -0.00511491 -0.02716252 0.00012771 0.00005094 -0.00013240
260 1 29.541652 27.009443 26.638361 -0.02109401 0.08745690 0.00912787 0.00015554 0.00047813 0.00006549
261 1 4.221695 20.081627 25.725240 0.00707414 -0.01662722 -0.01654550 -0.00008342 0.00000310 0.00005419
262 1 9.070747 22.562128 35.973934 0.00298344 0.00804785 -0.00142091 0.00004884 0.00018303 0.00011103
263 1 12.936313 7.877983 33.816258 0.06372990 0.00243407 -0.01569939 -0.00011563 0.00007045 -0.00002659
264 1 5.889186 32.653506 30.701213 -0.01257585 -0.03795698 0.02791869 -0.00001070 0.00007358 0.00005967
265 1 39.774837 0.145967 9.910998 -0.00143417 -0.01054219 0.00298778 -0.13922278 -0.00449309 -0.00214347
266 1 5.614251 24.098027 2.289321 -0.05160194 -0.02040419 -0.01354876 -4.88979125 2.77165530 -0.73741385
267 1 23.902984 28.971295 18.000177 -0.02706347 -0.04137516 -0.00831324 -715896306.48237729 -114096362.01476878 -423870316.42624140
268 1 27.502537 19.114190 19.243258 0.00110782 -0.03268317 0.02412379 0.00006361 0.00002955 -0.00009964
269 1 38.329439 20.628071 21.426048 0.06989914 0.03809944 0.04078858 -10.08874805 -53.30516899 -94.51581376
270 1 0.680524 2.419968 8.062921 0.05705647 -0.02900130 -0.01232452 0.00046540 0.00043658 -0.00032183
271 1 27.964501 20.006929 34.349939 -0.02283701 0.02427963 0.01455216 -1.01443728 -0.14801688 0.42726050
272 1 36.177208 38.468940 7.549319 0.00509104 0.03166426 0.06787057 0.00026751 0.00073673 -0.00046174
273 1 38.573582 17.732595 8.873439 0.01163582 -0.04267971 0.01043810 0.00000500 0.00003093 0.00005786
274 1 11.509610 22.219768 18.354844 -0.00111400 -0.01556408 0.03003951 0.00006690 0.00004014 0.00001751
275 1 14.755564 15.074206 18.599664 -0.00346955 0.01837226 0.00116542 0.00030615 -0.00017115 -0.00062623
276 1 4.009389 4.387559 0.764739 -0.00141679 -0.00362788 0.00569797 -0.00009121 0.00007639 -0.00004494
277 1 11.290532 24.947564 1.590619 0.04043559 0.00091434 0.07187843 0.00016176 0.00011772 -0.00006872
278 1 33.597240 14.524051 34.724497 -0.00235942 0.02179457 -0.01980744 -0.00000536 0.00005224 -0.00021172
279 1 30.770571 39.226865 13.376744 -0.03278681 0.00165100 0.02946040 -0.00014612 -0.00010388 0.00007264
280 1 28.537177 6.069346 27.713699 -0.02278741 0.00362860 0.02152263 -0.00007931 -0.00023210 -0.00003163
281 1 7.464367 28.588013 10.043173 -0.03711320 -0.02771860 -0.00910980 0.00007843 0.00000524 0.00005202
282 1 29.550072 3.564951 24.573626 0.03924896 0.03230182 -0.01638061 19.45517439 18.31443343 -19.67346232
283 1 13.476829 1.994439 25.345389 -0.02223723 0.04699724 -0.01642955 0.00012578 0.00014621 -0.00004072
284 1 6.225770 3.334660 36.348007 -0.00997238 0.03129735 0.00560330 0.00006876 0.00005024 0.00001576