ITEM: TIMESTEP
0
ITEM: NUMBER OF ATOMS
4928
ITEM: BOX BOUNDS pp pp pp
0.0 40.272462
0.0 40.272462
0.0 40.272462
ITEM: ATOMS id type x y z vx vy vz fx fy fz
1 1 30.280822 22.327403 7.808151 0.00263359 -0.01789264 -0.03473446 0.00009802 0.00008089 0.00004355
2 1 3.472341 26.126519 39.637698 -0.02964219 -0.01572838 0.01254544 0.00016889 -0.00018126 -0.00017375
3 1 0.246251 29.094854 12.797489 0.05837297 0.02465846 -0.09520264 -0.00004498 0.00005372 -0.00004594
4 1 9.505627 38.977012 32.054097 0.01821204 -0.05614700 -0.00403901 0.00011192 0.00003535 0.00000248
5 1 32.369243 11.569409 31.727733 -0.03753444 -0.03405563 0.00978038 0.00019469 -0.00010104 0.00022897
6 1 2.347701 28.044083 36.648640 -0.03911725 -0.04773554 0.01834228 0.00007251 0.00003604 -0.00014275
7 1 23.691099 30.157378 13.927376 0.03103562 0.03076359 0.02461851 -0.00016771 0.00000644 0.00014351
8 1 17.685846 28.913128 27.194496 0.07744177 -0.00886002 -0.03076621 30668900.19260719 -74747612.04681906 42100626.49737895
9 1 14.246119 9.556625 9.394475 0.03990909 0.02225308 -0.01671996 0.00004506 -0.00012031 0.00007058
10 1 40.054129 38.033536 7.498069 -0.00309839 0.03305812 -0.03315615 -4.31885336 22.95035728 -57.15444745
11 1 8.702855 7.616212 28.727233 0.03570362 0.01207002 0.03011061 66228.59956775 -3516.36975091 -65486.04780152
12 1 13.053644 7.197339 33.386238 -0.05154347 0.01570240 -0.05679607 0.00021904 0.00019616 -0.00001489
13 1 0.809979 4.650766 37.229797 0.04558706 0.00303154 -0.01065644 -0.00007657 -0.00021024 0.00013787
14 1 21.264269 19.861877 27.304599 -0.03050395 -0.06994845 0.08103167 0.00008759 0.00003593 -0.00005446
15 1 19.082264 35.774111 32.341367 -0.00885723 0.00410293 0.03942274 416.65040293 -365.07214735 -248.66767696
16 1 26.140944 15.650020 0.736005 0.02653855 0.04130526 -0.03125472 0.00009179 0.00006687 0.00006660
17 1 21.662557 35.932849 20.263023 -0.01352992 -0.05952378 -0.02424548 -0.00003256 0.00007966 -0.00013285
18 1 31.689781 39.446596 31.035803 -0.00861384 -0.04074752 -0.02452769 -0.00007627 0.00001877 -0.00007171
19 1 31.467440 35.526125 18.494743 0.01084699 0.01856740 0.01002113 -0.00019840 -0.00007674 0.00002124
20 1 38.872620 0.776754 28.419639 -0.04421658 -0.01028732 0.03559738 -0.00011364 -0.00018209 -0.00003532
21 1 2.655183 5.365308 14.107218 0.03700147 0.01981904 -0.03253132 -0.00013100 -0.00000908 -0.00000011
22 1 1.311355 24.608303 2.136414 0.01053084 0.02222844 0.03435248 0.00003944 -0.00027430 0.00003314
23 1 1.026675 36.625365 30.793249 -0.06802299 -0.06288740 -0.02599493 0.00003754 0.00009086 0.00001922
24 1 10.992404 5.648099 40.097653 -0.01862637 -0.03931683 -0.00117916 0.00001202 0.00012151 0.00007890
25 1 11.561093 12.012654 28.558229 -0.06948879 -0.01467968 -0.03703935 -0.00001438 0.00041854 -0.00010294
26 1 0.978925 31.391938 40.035081 0.04253928 0.07039665 -0.02727701 0.00005663 -0.00011859 -0.00009090
27 1 23.042485 13.606602 30.192252 0.02970070 -0.02350596 0.00942356 -0.00007172 0.00006519 -0.00003118
28 1 12.820217 24.540693 31.106184 -0.01108140 -0.00151611 -0.03912001 0.00001648 0.00011037 -0.00000569
29 1 12.385510 37.008837 35.852706 0.00315813 0.01275753 0.01872778 -0.00008628 -0.00012990 -0.00005233
30 1 26.190428 0.477760 6.023053 -0.05318699 0.00627415 -0.02975791 0.00002395 0.00000962 0.00020165
31 1 37.171416 39.788411 29.354618 -0.01147877 -0.00016861 0.01040032 0.00002277 -0.00003953 -0.00001885
32 1 7.589826 2.731128 40.198764 -0.01173534 0.00428556 0.04834140 0.00007199 0.00017636 0.00006155
33 1 8.984533 37.200603 1.694838 -0.03192195 -0.01617153 -0.01662021 0.00000383 0.00001641 0.00005205
34 1 31.761378 12.078544 35.175482 -0.05159560 -0.02880325 0.00706774 -0.00009438 -0.00003709 -0.00007379
35 1 1.654028 21.293634 23.403976 -0.02758001 0.03677547 0.05646424 0.00011800 -0.00000268 -0.00007682
36 1 4.660576 27.382987 28.628815 -0.02400870 -0.04143572 -0.04089404 -0.00005539 0.00000054 -0.00007176
37 1 35.605451 19.129816 1.136261 0.00705017 -0.01975493 -0.01581747 0.00006069 -0.00014480 -0.00016714
38 1 29.575282 10.847040 3.408586 0.00665125 -0.00039699 0.02877878 -0.00008598 -0.00011989 -0.00013773
39 1 25.801401 34.007752 18.135191 0.01136141 0.01416954 0.05813944 -0.00000191 -0.00003682 0.00006900
40 1 16.875335 19.167656 18.639951 -0.02870922 0.05349230 0.01276380 0.00006437 0.00000252 -0.00000443
41 1 12.185928 4.311385 15.116203 -0.03580974 0.00050232 0.01923660 -0.00017210 0.00005298 0.00001525
42 1 24.531099 1.358191 14.055564 -0.02951137 -0.02595982 0.02657062 0.00002768 -0.00009294 -0.00009040
43 1 2.173866 24.339959 15.131988 -0.01073156 0.00184791 0.02780713 0.00005418 -0.00005321 -0.00000997
44 1 19.238039 36.172703 8.976513 -0.02803190 -0.02515539 0.00901855 -0.00001861 -0.00004588 -0.00019687
45 1 10.143088 26.166760 20.264642 -0.06355369 -0.04184372 -0.01800168 0.00004153 0.00001933 0.00013600
46 1 30.617755 15.128474 35.169935 0.00021394 -0.03779757 -0.01754001 0.00018941 0.00013438 -0.00012433
47 1 40.147877 1.685638 37.726028 0.01261036 -0.02522085 -0.00419370 0.00002891 -0.00000703 -0.00003889
48 1 0.263586 12.455126 23.088678 0.00305448 0.02346930 -0.00647097 -23858.83147091 -5213.18590303 -912.49254881
49 1 19.954621 2.366250 16.314307 -0.05191444 0.01913362 0.05220550 -0.00014747 -0.00007123 0.00004545
50 1 17.639757 37.910354 28.742187 0.01199980 0.00245367 -0.06526580 -0.00032614 0.00042455 -0.00079012
51 1 30.088107 19.499828 8.574365 0.08217158 0.03317714 0.00493076 0.00013313 0.00009254 0.00005227
52 1 28.070429 12.707590 6.576262 -0.00145281 0.02170128 0.01347354 0.00000731 -0.00012288 0.00004986
53 1 15.230457 7.748613 11.582727 -0.00195156 0.08003125 -0.02012240 -1421.71728230 18336.12770507 2555.37801898
54 1 29.617629 25.751660 22.488781 -0.00108796 -0.02104638 -0.01590479 0.00010213 0.00003393 0.00005104
55 1 30.332538 9.363289 18.399089 0.03196148 -0.01138714 0.05232108 -0.00007085 0.00012027 -0.00006805
56 1 26.898042 25.524837 7.477642 -0.01725378 -0.01088317 0.02653940 -0.00009684 -0.00013089 -0.00004556
57 1 35.326120 3.525481 1.564644 0.01759982 0.01013892 0.05079010 -0.00000280 -0.00016374 0.00001928
58 1 29.558502 30.708509 31.655689 0.04603901 -0.01171916 -0.03071491 -0.00001051 0.00009583 0.00000612
59 1 11.261399 33.831148 23.122360 0.01214585 0.03233858 -0.01423567 -1624.63035846 3999.77868326 -81.30675928
60 1 10.940832 37.582126 39.670481 -0.00164948 -0.02703469 -0.05303199 -0.00000614 -0.00005048 0.00001114
61 1 24.376213 36.116638 7.538058 0.00599802 0.01460868 0.01078869 0.00006394 0.00004465 -0.00013164
62 1 38.646763 4.051460 20.055060 0.06221817 0.05782266 -0.04536849 -0.00016266 0.00007719 0.00005596
63 1 29.872115 36.986323 21.181474 -0.00419627 -0.01108097 -0.01755754 -0.00010903 0.00002630 0.00000907
64 1 5.799140 15.452892 21.200512 -0.02958547 -0.00970889 -0.01934055 -0.00002702 0.00018310 0.00001422
65 1 23.887751 2.760998 13.194393 -0.00516414 0.01515949 -0.01430910 0.00010288 -0.00007792 0.00005540
66 1 20.637210 11.484212 23.025981 0.00994119 0.03963442 -0.03835834 -0.00001699 0.00004293 -0.00012713
67 1 3.145492 18.828620 4.112239 0.04017207 0.03041903 -0.03108164 -0.00000573 -0.00013103 0.00001189
68 1 20.327385 28.509648 34.886092 -0.04126291 -0.00733111 -0.04225718 0.00004663 0.00014598 -0.00006342
69 1 34.260978 14.259452 7.857401 0.00474001 0.01581961 0.00435856 0.00015396 0.00008095 0.00008281
70 1 35.571276 38.294381 29.941553 -0.00410725 -0.02681068 0.04673224 0.00009962 0.00000349 0.00010343
71 1 34.792472 29.617299 34.910871 -0.08313790 0.03991098 -0.03772878 -7862.99169371 4908.02054043 16731.20845315
72 1 28.569296 29.029886 1.385857 -0.02384889 -0.04069856 0.02301314 -0.00009187 -0.00009891 -0.00000324
73 1 37.963376 0.212350 27.041193 0.02979646 -0.02020637 -0.00012464 -0.00006802 0.00009694 -0.00012378
74 1 31.152815 18.880006 5.209582 -0.02493521 0.01091931 0.00689371 0.00001183 0.00007747 -0.00001313
75 1 0.562188 22.916538 18.087183 -0.04289914 0.00927615 0.00136590 -0.00006769 0.00002205 -0.00008255
76 1 3.491124 38.123494 33.898673 -0.01575042 -0.01756434 -0.04891592 0.00018108 -0.00012876 -0.00015840
77 1 7.521019 34.692764 14.798732 -0.01359051 -0.00214110 -0.01529866 0.00010921 -0.00006514 0.00003147
78 1 5.466224 0.515911 7.464105 0.03879421 0.03577892 0.00096650 -490.86951055 -865.14855206 2255.66340512
79 1 3.793573 11.060317 37.070272 0.00117576 -0.04140453 0.00966086 -0.00010716 0.00008883 0.00002401
80 1 7.086821 24.471571 24.492574 0.03065541 -0.01601460 0.01561755 0.00013156 -0.00005845 -0.00005306
81 1 20.285789 3.747055 22.487523 -0.01151527 0.05579641 -0.01655099 -1022.58121410 -1568.31990036 -400.46615960
82 1 34.856968 28.017750 17.504876 -0.02630390 0.02190688 0.00898477 0.00008069 -0.00002994 0.00005486
83 1 13.821441 33.140216 33.409165 0.00181700 0.03193302 -0.05725702 -0.00006753 0.00010239 -0.00006397
84 1 8.318877 22.295488 12.576926 0.04336807 0.00182574 0.01760198 0.00001565 -0.00006306 -0.00015754
85 1 38.576181 3.134213 28.037563 0.01814085 -0.02710526 0.03327306 -0.00004864 -0.00017701 0.00017934
86 1 35.235978 24.234390 12.944596 0.03248157 -0.03372284 0.06125742 -0.00015263 -0.00021285 -0.00007452
87 1 3.453996 30.335748 25.279981 -0.00428589 -0.02800013 -0.04290396 -0.00009414 -0.00002107 -0.00000267
88 1 34.340649 8.398684 35.829667 -0.01691633 -0.00475680 0.03284347 0.00004080 0.00009685 0.00002337
89 1 35.978032 17.519345 6.003083 0.02818627 -0.01212106 0.03031985 0.00006783 -0.00009731 0.00001119
90 1 22.740205 35.960786 19.872289 -0.05148871 0.02877607 0.10178005 -0.00001834 0.00009071 -0.00007378
91 1 14.158881 4.088463 11.179029 -0.00693312 0.03409138 -0.05438431 -0.00061715 -0.00185098 -0.00016146
92 1 37.725546 6.947182 33.359596 -0.06857985 0.00746082 0.05655515 -0.00019669 -0.00005948 0.00004984
93 1 28.433295 32.391933 22.440878 -0.03594432 -0.01160949 0.02315220 0.00024112 -0.00018973 -0.00013367
94 1 1.355790 2.060129 6.537710 0.00369858 -0.00611104 -0.01583979 -0.00066823 0.00107060 -0.00044667
95 1 16.618565 17.520671 10.722777 0.01445368 0.03954552 -0.03085695 -192.48720656 191.44219188 -189.36428807
96 1 12.513003 12.251582 21.676414 0.01211486 -0.02439417 0.00059362 0.00003289 0.00007862 -0.00005515
97 1 37.364301 20.958715 9.688636 0.00114380 -0.06138688 0.00509411 -0.00003958 -0.00001001 0.00010843
98 1 9.179244 38.456032 1.533419 0.02793022 0.03092510 -0.00423377 0.00007232 0.00009241 -0.00019004
99 1 26.511985 18.420799 14.432441 -0.01188960 0.01441485 0.02347265 0.00007296 0.00000012 -0.00000931
100 1 3.883246 11.333674 22.275711 0.00400182 -0.05027268 0.03277447 0.00186017 -0.00060176 -0.00034574
101 1 2.708973 20.013539 29.095486 -0.03110112 -0.01277069 -0.03778008 0.00020625 0.00001208 -0.00011259
102 1 19.005557 4.271288 26.830996 -0.01354226 0.01820770 0.05994690 -0.00023022 -0.00002790 0.00069767
103 1 16.040817 8.496277 25.925647 -0.00713828 0.02407921 -0.00741227 -0.00000712 -0.00000198 -0.00000027
104 1 28.762814 13.879041 6.636074 0.02479541 0.01579501 -0.00420560 -0.00008710 -0.00021440 0.00007944
105 1 23.234211 30.875065 19.800038 -0.03047389 0.01367921 0.03752432 -0.00005438 0.00014476 -0.00020663
106 1 27.789042 37.938858 21.815936 0.03199738 0.00408906 -0.00958075 112825.59867587 -24162.49510910 -85205.77840862
107 1 39.951461 25.276827 27.573420 -0.02343358 0.01887918 0.01894391 -0.00006312 -0.00010468 -0.00000985
108 1 26.121779 15.261098 20.879644 0.02181006 -0.06063722 0.02778113 0.00013913 0.00021725 -0.00023345
109 1 16.340737 16.122867 4.013808 -0.02761404 -0.03499219 -0.03275688 -0.00021344 -0.00008247 -0.00004337
110 1 20.673535 4.488802 1.779777 0.03180307 0.00675167 0.02194278 0.00008372 -0.00012209 -0.00003977
111 1 25.393057 0.861097 38.180901 0.02372770 0.01392014 0.00448930 0.00013557 0.00004158 -0.00003597
112 1 22.407242 27.085133 17.837216 0.01991189 -0.01263305 -0.01205685 0.00002274 -0.00001908 -0.00009028
113 1 3.119405 9.674825 1.224553 0.06900914 -0.00855959 -0.00929544 0.00004115 -0.00006028 0.00007169
114 1 1.086736 0.407761 38.500655 0.06121022 0.01930040 0.00836087 -0.00023089 0.00002821 -0.00009813
115 1 18.566002 24.478352 8.030645 0.02004346 -0.03255852 -0.00364529 0.00007818 -0.00014159 -0.00015656
116 1 38.049931 22.978024 23.887857 0.00727426 -0.02019378 -0.00127059 4242644.73272795 -2283444.52897453 -1643713.76310653
117 1 24.278276 1.900942 11.632274 0.00054949 0.04430030 -0.07943329 251.45043424 280.32967202 85.73392674
118 1 22.487339 1.620705 30.214253 -0.02106576 0.01285675 0.03524329 0.00009961 0.00014807 0.00001496
119 1 30.176162 17.061218 15.492148 0.03421158 -0.04455170 -0.01716189 -79944.81591130 15966.14697556 -29856.56572156
120 1 1.305437 37.438409 31.422955 0.01763537 0.04519448 -0.00464667 0.00010029 0.00003576 0.00008015
121 1 0.397245 20.778941 23.729255 0.04944437 -0.01199629 -0.00434470 0.00204053 -0.00168056 -0.00005924
122 1 24.605717 24.928864 33.174084 0.03903175 0.02864864 -0.02580169 0.00013612 -0.00006105 -0.00001452
123 1 10.194800 19.798851 15.677414 -0.00480282 -0.04378674 0.07043870 -0.00010355 0.00006957 -0.00019432
124 1 11.944295 4.369597 30.667698 0.03300239 0.00497183 -0.00177138 0.00015845 -0.00038540 0.00021634
125 1 17.169506 0.085361 30.600283 0.03853895 0.03299579 -0.02916453 -0.00011280 0.00019209 -0.00001724
126 1 36.345420 1.763101 0.491039 -0.02788709 -0.01766885 0.04909224 0.00013059 -0.00003056 -0.00000356
127 1 35.982982 3.637317 28.240205 0.00548782 -0.07842046 0.02529497 0.00009118 0.00021103 -0.00011192
128 1 8.971227 3.569431 29.669189 0.03575574 0.01027408 0.00225648 0.00016322 -0.00129919 0.00038098
129 1 17.275565 9.825875 30.547008 -0.01568362 -0.03172527 -0.02621828 0.00005818 -0.00002370 -0.00002203
130 1 23.732603 34.545676 9.944644 0.03841597 -0.05110898 -0.00136252 -0.00001576 0.00003147 -0.00007123
131 1 37.173957 23.257140 31.870174 -0.05337888 0.03028406 -0.03711776 -0.00004934 -0.00001229 0.00013222
132 1 10.396461 0.375475 15.044231 -0.00174671 0.05534678 -0.04535423 -0.00004488 -0.00003117 0.00000294
133 1 32.767330 33.027347 35.495716 0.00222683 -0.02286470 -0.03397693 -0.00080972 0.00137256 0.00026769
134 1 36.374957 13.059772 5.288492 -0.02036423 0.00252317 -0.01259831 0.00001958 -0.00005870 0.00016338
135 1 31.799914 9.245628 36.673538 0.03526583 -0.02551584 -0.01491078 0.00000395 -0.00004703 -0.00013154
136 1 21.506843 8.839109 34.578488 0.00385244 0.08564725 0.04894352 0.00015892 -0.00006291 0.00018246
137 1 7.596358 21.792013 16.774866 0.01049434 -0.00026689 0.00289934 -0.00006463 0.00000471 0.00000511
138 1 10.598215 8.838317 11.495412 0.06339246 0.03675934 0.05325468 -0.00058350 0.00016580 0.00004885
139 1 33.367776 19.926467 25.180297 -0.01126714 -0.00168624 0.01203658 -0.00005573 -0.00004555 -0.00012316
140 1 19.136389 18.663564 36.373753 -0.02960391 -0.06865115 -0.03714706 0.00010504 -0.00007189 0.00017993
141 1 38.770586 0.482675 4.570139 0.00877264 -0.05384731 0.07159086 -0.00050242 0.00064553 -0.00081720
142 1 11.844180 12.911717 33.590556 0.02719091 -0.00141443 0.01745857 -0.00007586 0.00000259 0.00003878
143 1 29.221491 12.380459 39.246017 0.02916362 -0.00236697 0.07731221 0.00009669 0.00002231 -0.00003065
144 1 1.403074 24.801411 30.733255 -0.05814642 0.03558182 -0.00425113 2131.52662939 1021.20092807 1875.23930356
145 1 33.558699 25.307725 7.329529 0.07694812 0.04950752 0.04165278 146.97622867 -161.21545145 48.69669166
146 1 31.754124 6.870083 32.233227 0.00393701 0.00621148 0.00875634 0.00001268 0.00000285 -0.00008696
147 1 7.177554 10.518470 11.087381 -0.04784218 -0.06266679 -0.00670579 0.00003481 0.00000131 -0.00008227
148 1 17.316368 20.648371 10.894429 0.02693805 -0.00515216 0.01512868 37.61698485 -11.00976372 -28.51790258
149 1 6.791428 21.642365 16.587255 -0.02263575 -0.02005379 0.03124509 0.00008564 0.00004434 0.00007382
150 1 7.907616 36.828165 20.225308 0.04783869 0.01515393 -0.02718446 -0.00011968 0.00017798 -0.00023770
151 1 4.210585 0.030914 8.472671 0.00239789 -0.04671601 0.01019791 28.26909068 10.91925507 -22.70631207
152 1 4.769870 23.713763 19.401330 0.03330100 0.01553353 0.01934861 -20.05570393 -26.91459317 -6.29280553
153 1 40.098066 12.968319 17.785549 -0.00306070 -0.01976155 0.04409524 -0.00020714 0.00003845 -0.00035108
154 1 22.800040 11.918996 20.759959 0.03398659 -0.01956178 0.01820154 -0.00008045 0.00005409 -0.00020722
155 1 13.556254 17.140425 20.620317 0.03184036 0.00047137 -0.03707482 -0.00009606 0.00016762 0.00000437
156 1 6.766746 0.812741 23.943151 0.00696688 0.01687305 0.00153470 0.00017815 -0.00004093 0.00004537
157 1 26.338573 11.764593 39.692273 -0.00626833 0.01109823 0.01770894 -0.00003528 0.00002565 0.00019833
158 1 9.966026 33.268357 29.288443 -0.01084848 -0.04428233 -0.07136782 -0.00005442 0.00005137 0.00015853
159 1 34.279180 25.071604 28.647054 -0.03143164 0.01495625 -0.00749612 -0.00001540 0.00006931 -0.00006794
160 1 4.986774 37.640364 16.378523 0.00452793 -0.01081666 0.01042654 0.00000178 -0.00010948 -0.00019752
161 1 33.076649 17.253932 27.367106 0.07218943 0.04024107 -0.02647675 0.00005171 -0.00006645 0.00003211
162 1 2.370118 15.365553 28.405913 0.01009873 0.02780857 0.02256694 0.00014193 0.00005172 0.00002659
163 1 10.207577 18.289305 25.344851 0.06883720 -0.04482147 0.03710730 0.00005812 0.00002459 -0.00013622
164 1 30.171913 14.758035 25.167795 -0.00275215 0.04739136 -0.02920547 0.00011807 0.00006497 -0.00000445
165 1 14.906758 6.735517 6.196399 0.01729772 0.04620502 0.00848456 -0.00001154 0.00017112 -0.00002298
166 1 2.724942 23.811626 18.023846 0.03241744 -0.00029686 0.01159286 0.16880175 -0.00815396 0.11377630
167 1 22.565917 12.158167 16.024481 -0.01922042 0.00415247 0.02900897 0.00003551 0.00017654 -0.00007237
168 1 6.614367 36.855772 32.504894 0.03144552 -0.03972819 -0.00281932 -0.00002909 -0.00017954 -0.00012901
169 1 3.965094 19.582237 25.204413 0.00715946 0.00349908 -0.02403121 0.00002321 -0.00009058 0.00002621
170 1 37.763069 10.338155 23.682654 0.00899750 -0.00967503 -0.01493118 -0.00210918 -0.00143574 0.00029010
171 1 28.948497 28.901242 6.829831 0.03924817 -0.00640856 -0.00874964 -0.00006494 0.00008804 -0.00001766
172 1 36.863992 39.709202 20.784669 0.03045391 0.01472801 0.03395553 6608.15260424 20670.16430059 4386.19574271
173 1 12.672541 7.139888 27.043341 -0.08853333 -0.02029609 0.02163097 0.00118484 -0.00015689 -0.00032338
174 1 23.250723 11.219768 2.131720 0.02721230 -0.02101516 -0.02682092 0.00002770 0.00002362 0.00011904
175 1 3.597258 14.407971 6.543567 -0.04210053 -0.02751313 0.01334494 0.00008574 0.00001049 0.00006948
176 1 30.637574 2.558919 34.710889 -0.00219338 -0.02969617 -0.05855063 0.00002966 0.00020578 -0.00006567
177 1 39.141514 26.252374 34.097959 -0.03415604 0.00495024 -0.00152886 -0.00037348 0.00024850 0.00072157
178 1 33.511161 21.044091 12.855638 0.05292243 0.01618507 0.00196127 0.00014051 0.00014262 -0.00010754
179 1 24.286592 16.698917 22.206158 0.01243453 -0.00626468 0.07971358 0.00000945 -0.00018620 0.00007267
180 1 24.545931 4.248917 8.504547 0.01576059 -0.02509200 -0.00716625 0.00009627 0.00099278 -0.00145482
181 1 17.503883 19.947622 19.432803 0.00673669 0.03124180 -0.00430052 -15.35793630 -10.05013891 14.96942221
182 1 37.081758 1.402181 4.723865 -0.01917880 -0.01651093 0.00239926 -0.00020453 0.00005660 -0.00013461
183 1 19.115106 20.223625 12.725745 -0.02917121 0.02590154 0.04481110 -0.06187681 0.01572032 -0.06324749
184 1 13.544890 4.310534 23.815732 0.01406914 0.00547069 0.03625509 -0.00016057 0.00027442 0.00005814
185 1 0.949938 11.462122 0.796270 0.04475681 -0.02382413 -0.00950328 -0.00008077 0.00011123 0.00000878
186 1 0.957432 5.783000 25.049386 0.00775912 0.00489890 0.01716937 0.00007273 -0.00023291 -0.00003644
187 1 30.613693 11.253906 16.134472 -0.02108191 0.04924726 -0.02676279 0.00003606 -0.00007639 0.00001456
188 1 3.770000 32.292356 16.906643 -0.02906048 -0.01399373 -0.04205365 0.00004087 -0.00007894 0.00002159
189 1 10.153228 10.988354 15.288254 0.01154490 -0.03550935 0.07278057 -0.00015007 0.00009530 -0.00002144
190 1 33.786617 37.090289 19.279768 -0.02221189 -0.02328084 -0.02337163 -0.00068020 -0.00087619 -0.00068928
191 1 20.873994 17.181907 15.418718 0.08507795 0.02325303 0.00276151 0.00019274 0.00001206 -0.00000446
192 1 7.199276 34.432116 3.677696 0.05784777 -0.00732301 -0.02486516 0.00004701 0.00010410 0.00003738
193 1 22.223926 5.255633 2.485958 -0.00790660 0.01711706 0.01745546 592.47179001 -320.49532841 -682.70695993
194 1 31.500650 12.021756 18.590013 0.03782765 0.03827021 -0.04032479 -0.00019150 -0.00023693 0.00006364
195 1 13.205968 22.592811 36.064205 -0.03469740 0.04095968 0.02930097 -0.00001954 0.00008291 -0.00000245
196 1 14.726353 6.559342 3.774588 0.00358164 0.03598464 -0.01040651 -22.66600768 552.41223043 -14.59055383
197 1 11.840889 11.459919 4.169965 0.01809520 0.01603763 0.02267820 -0.00011962 0.00031528 0.00009279
198 1 1.280507 7.489720 27.902685 0.04553161 -0.04052477 0.03332449 -0.00012076 -0.00008520 -0.00004330
199 1 7.263492 34.035162 2.528247 -0.00082299 0.05046531 0.00498068 0.00010911 -0.00010953 -0.00000924
200 1 14.189386 35.038311 26.086751 -0.00886785 0.05215748 0.01645052 0.00075265 0.00045396 0.00056896
201 1 20.736272 24.430463 9.926070 -0.02028750 0.01920597 0.01615891 0.00008831 0.00040336 -0.00001208
202 1 19.567895 0.168253 24.423963 0.01523805 -0.01459483 0.04967808 -25169062.59422575 25169662.02633838 65585484.22851150
203 1 15.338599 25.949528 30.494410 0.00911954 0.04730205 0.00632933 -0.00014929 -0.00012204 0.00034681
204 1 11.789378 21.167239 2.189951 -0.05312119 0.00857096 -0.01013718 0.00005195 0.00001388 0.00012988
205 1 1.391706 34.832887 4.482053 0.07139194 -0.05441178 -0.01574275 0.00030003 -0.00039352 -0.00050023
206 1 3.559204 24.831153 35.847106 -0.01848414 0.03097105 0.04863620 0.00004280 -0.00004649 0.00022937
207 1 17.056988 33.873521 29.806691 0.01083998 0.02997759 0.00396241 -0.00116484 -0.00082958 -0.00128993
208 1 8.018708 30.959087 25.012078 -0.03030030 -0.03805975 -0.07312582 -0.00055406 -0.00041806 0.00024899
209 1 2.305565 1.975679 38.991179 0.01830599 -0.03935945 -0.00831405 0.00013812 0.00005991 -0.00007396
210 1 32.347879 27.481117 3.040561 -0.00134003 0.04797076 -0.00159642 -88.40645362 41.31530819 -19.75194671
211 1 29.688645 27.071607 20.248430 -0.01402761 0.00339655 0.01805127 0.00013113 -0.00003157 0.00002378
212 1 0.405063 1.851765 10.959789 0.03614826 -0.04334444 -0.04104556 0.00004764 0.00027352 0.00035938
213 1 22.284941 26.969140 27.039212 -0.03197764 0.01815743 0.02547254 0.00040494 -0.00014764 0.00000487
214 1 36.266148 30.302514 28.432877 0.03343636 0.00338806 -0.01524789 0.00013781 -0.00007430 -0.00000849
215 1 0.793700 26.108062 30.542966 0.05950795 0.01181186 -0.01213290 106.62337390 -228.62764421 33.29523603
216 1 23.261325 30.543450 17.528386 -0.01430580 -0.02545688 -0.01902838 0.00014555 -0.00003268 -0.00002184
217 1 32.363099 26.195915 13.275771 -0.02429640 -0.03927692 0.05001293 -0.00030717 0.00010595 -0.00001482
218 1 21.044402 13.052929 35.659697 -0.04209963 0.04282842 0.00717676 -0.00002774 -0.00000757 -0.00019804
219 1 21.581200 36.697380 23.771585 0.00887998 -0.03755421 -0.00100272 0.00050975 -0.00092426 0.00010495
220 1 22.753353 9.996650 1.755756 0.03684374 -0.05581975 0.00719370 0.00027398 0.00051609 -0.00008111
221 1 1.778890 29.618652 1.986038 -0.01610074 0.02784819 0.02861656 0.00003212 0.00005511 -0.00008967
222 1 17.282600 24.239395 20.033148 0.00640217 -0.04037086 -0.01644787 120.51561347 188.89294725 -277.20947278
223 1 5.136807 1.299447 36.597504 0.01631829 0.03213905 -0.04136144 0.00011220 0.00007185 -0.00002800
224 1 35.880600 27.770978 32.872772 -0.01641460 -0.00234628 0.01646508 -0.00278386 0.00470288 0.00538719
225 1 0.881071 29.841947 10.077320 0.05690480 -0.02419304 0.05615965 1238.52760898 -1612.81448074 2979.12464825
226 1 19.293102 30.017008 2.362138 0.03382257 -0.03205112 0.01004202 0.00011216 0.00007576 -0.00008058
227 1 19.635885 0.401023 10.552811 0.01117630 -0.01461926 0.04322228 -0.00066935 -0.00026068 0.00021222
228 1 25.556581 34.315879 21.633362 -0.03838319 -0.00530169 0.00966454 -0.00063641 -0.00092915 -0.00018680
229 1 38.418017 37.979868 39.682069 0.01955729 -0.02369586 -0.02512522 -34573.28980526 285049.26724586 -7907.92258251
230 1 24.705775 38.733875 10.021645 0.03185920 -0.00219712 0.04658637 0.00024282 -0.00177069 -0.00086780
231 1 23.515137 35.905304 1.698319 -0.05020432 -0.03071624 0.01560965 0.00003323 -0.00024783 -0.00006405
232 1 6.948888 27.668221 27.154387 0.03141471 0.01481335 -0.01381169 -74.75151004 -87.26898307 70.27500269
233 1 3.336117 34.404119 23.744150 0.02395925 0.00198520 -0.04012610 0.00001992 -0.00009086 -0.00007054
234 1 25.673235 2.812966 14.182798 0.04430963 0.03694748 -0.04783070 -0.00124501 -0.00089211 -0.00244509
235 1 40.210659 9.907961 2.078862 0.00214550 0.03658318 0.04694375 -2096.43686465 100.47070065 -448.58805275
236 1 28.645181 35.795660 38.249480 0.01167131 -0.02424393 -0.00711067 0.00003719 0.00010540 -0.00000305
237 1 17.551612 6.587824 4.703694 0.03776050 -0.00708195 0.03824862 -0.00648650 0.00005937 -0.00182873
238 1 8.862933 21.563866 9.407434 0.06181599 0.03921313 -0.03026480 0.00007043 0.00003641 0.00014424
239 1 25.909098 0.792346 35.656561 0.02884967 0.03500948 -0.02255722 -0.00000259 -0.00002140 -0.00012076
240 1 12.055079 31.719680 12.071431 -0.00821742 0.00388368 0.03328310 -0.00024054 0.00002469 0.00006699
241 1 1.499717 25.996202 11.411861 0.02996957 -0.02528411 0.02595135 0.00014412 -0.00125297 0.00041011
242 1 36.044474 11.451108 4.302860 -0.00447071 -0.05353127 -0.00360224 -0.00040043 0.00021360 0.00020574
243 1 28.524456 21.713496 28.059917 0.02000333 0.04821394 0.01924637 0.00010934 0.00000397 -0.00002301
244 1 38.015292 15.940097 28.589146 -0.08119505 -0.03545273 0.01222601 -0.00004603 0.00003135 0.00006361
245 1 6.283608 6.225065 2.459298 0.03291118 0.00408596 0.01148167 0.00006685 -0.00009535 -0.00023189
246 1 17.368187 9.023258 11.420271 -0.02262517 0.02521104 0.00737931 -0.14880624 -0.08866043 0.01129947
247 1 3.261820 27.134454 37.450360 -0.04742934 0.06936794 0.05188662 0.00013196 0.00001966 0.00003166
248 1 19.458198 9.589465 12.208406 -0.01313485 -0.01956029 -0.02994853 0.00056127 0.00031909 0.00007620
249 1 15.447506 3.643584 3.662058 0.01106589 -0.02258269 -0.00386778 46.40822794 -36.38881502 -41.67177382
250 1 2.554369 36.015555 24.620510 -0.02014662 0.03749056 -0.00509574 -0.00017595 0.00014087 0.00023650
251 1 27.234951 37.829283 20.273819 0.00496197 0.03424012 -0.05967415 17.48147520 3.45704275 48.65313378
252 1 39.827428 9.724208 38.278100 -0.00968116 -0.02662185 0.04993776 -0.00012263 -0.00004692 -0.00141913
253 1 19.276964 20.171461 30.499689 0.03936852 0.00896272 0.05882949 -0.00009308 -0.00009296 0.00010327
254 1 5.223699 20.462065 36.625961 0.04771485 0.00116330 0.03021439 0.00011127 -0.00005848 -0.00004442
255 1 21.455002 8.793341 30.400410 0.01853552 -0.00338759 -0.01974388 -0.00006493 -0.00008776 -0.00017491
256 1 14.301353 8.759662 25.290529 -0.00636323 -0.01636898 0.00989146 -0.00009217 0.00002813 0.00003587
257 1 3.982006 36.424471 29.542194 -0.01558946 -0.00720090 0.01203293 -0.00011209 0.00012244 -0.00013934
258 1 5.488066 25.531149 11.253496 0.00204684 -0.00598119 -0.04287531 0.00018655 -0.00027540 0.00014650
259 1 0.175510 27.699130 37.938862 -0.01098955 0.02456500 0.01124800 1749097.83271200 482617.65685844 -33653.99547107
260 1 18.445012 6.128435 18.772571 0.01882950 0.00846679 -0.01222421 -0.00019572 0.00044723 -0.00039516
261 1 12.074936 11.454528 33.100637 -0.03390891 -0.00452087 0.01627147 0.00006799 0.00010349 0.00015309
262 1 15.710595 12.544707 12.140358 0.00273091 -0.01845817 0.02727489 0.00007480 0.00016326 0.00006253
263 1 28.368106 5.161906 13.438110 -0.04071554 0.01341910 0.02382696 0.00019995 -0.00005588 0.00006597
264 1 26.871484 0.490152 5.328548 0.04576716 0.02670851 0.03672858 0.00004017 0.00006682 0.00006005
265 1 7.358318 13.594941 38.659059 -0.06512498 0.02113775 0.01181901 -0.00012025 -0.00011772 -0.00006108
266 1 22.367727 6.433902 15.308850 0.01514251 0.03045075 -0.00137696 -0.00002089 0.00023590 -0.00000355
267 1 30.735697 8.524163 18.652602 -0.01282299 0.02458591 -0.02946247 0.00006180 -0.00001762 0.00010469
268 1 25.416723 28.131894 1.677674 -0.01126395 -0.01069321 -0.06820839 -3263.06113941 -19149.97545639 -16483.19324554
269 1 24.824146 38.586090 12.989565 -0.03011923 0.05116899 0.05591429 0.00021115 -0.00165371 0.00092204
270 1 20.525588 31.279648 24.048601 0.03265602 -0.00359587 0.03179194 0.00017073 0.00021556 -0.00052739
271 1 9.801791 13.969221 6.036745 0.01219470 -0.03937433 -0.02642437 -0.00007615 0.00022191 0.00005903
272 1 29.070799 9.147447 20.172871 0.02351420 -0.00169042 0.07659386 -0.00003259 -0.00004550 -0.00012093
273 1 20.316186 3.972653 29.445859 -0.00848781 0.02727367 0.02128055 0.00013623 -0.00000410 0.00019895
274 1 3.131478 8.685441 6.114436 -0.03782252 0.02661379 0.02387342 0.00029604 0.00006881 0.00028044
275 1 25.679694 26.242950 3.465699 -0.01005622 -0.02316554 0.05141359 -0.00849005 0.06074053 -0.05744286
276 1 33.544142 25.137673 18.906057 -0.01080287 0.00388811 -0.07350416 -0.00014935 -0.00018392 -0.00002368
277 1 15.349112 11.372570 6.059389 0.04923662 0.07515433 -0.03600415 392.71588314 58.78141139 -75.36529944
278 1 19.381507 0.354643 24.909648 -0.01514217 0.03142882 -0.01500425 25169220.89882196 -25169597.27605074 -65585448.73271446
279 1 13.940981 27.125949 14.001777 0.00049608 0.01627831 0.03428983 -987.67080992 -1565.69229181 1035.34535621
280 1 26.489307 17.524998 6.650354 0.01255878 -0.00780243 -0.01155962 0.00000783 0.00019976 0.00004054
281 1 8.114189 1.080462 38.776901 0.00428998 0.05244804 -0.02935779 -0.00008203 0.00009163 0.00006482
282 1 32.956063 14.566826 13.781274 0.00195859 0.03168053 -0.04366827 0.00109809 -0.00069312 -0.00058513
283 1 0.647902 25.401989 39.035507 0.02544431 0.02718843 -0.00462336 -0.01783945 0.08687986 -0.04160381
284 1 30.929036 22.779510 25.918027 -0.03270506 0.07611434 -0.00312338 -0.00008899 -0.00018975 0.00010758