ITEM: TIMESTEP
0
ITEM: NUMBER OF ATOMS
2326
ITEM: BOX BOUNDS pp pp pp
0.0 32.839340
0.0 32.839340
0.0 32.839340
ITEM: ATOMS id type x y z vx vy vz fx fy fz
1 1 10.510960 18.398690 24.927581 -0.00327225 0.02265884 -0.03982940 0.00008335 -0.00018679 0.00006977
2 1 6.273001 17.033435 19.448143 -0.02184971 0.01833643 -0.02412533 0.00002156 -0.00007625 0.00001566
3 1 21.895950 8.589930 31.073139 -0.04402462 -0.02115760 0.01094764 -0.00007009 -0.00016248 -0.00015573
4 1 27.850543 4.167936 0.109764 -0.01010895 -0.01942218 0.02431634 -513.80476797 1164.97989086 -1753.74875452
5 1 4.332418 12.123288 13.469646 -0.06209474 0.01978139 -0.00400005 -0.00012856 0.00003943 0.00000926
6 1 20.076313 20.796127 11.111412 0.00715043 0.03987384 -0.03609544 1127971.00854372 180999.98673628 492698.67008059
7 1 2.495826 24.311922 21.556859 0.04267709 -0.01686232 0.01138981 -0.00004414 0.00014741 0.00009701
8 1 16.311598 31.104296 26.269677 0.01627562 -0.00777639 0.08779609 0.00007389 0.00005026 0.00006304
9 1 30.181051 15.445023 9.577374 0.04472830 -0.00585994 0.01195694 -0.00001270 0.00008635 0.00008343
10 1 23.704649 11.537820 0.704890 0.00304480 -0.01602581 0.03032011 -995348.21418607 2816865.81570361 111132.30954350
11 1 10.247224 0.753201 24.757956 -0.03419491 -0.03152012 -0.01233055 -0.00004966 0.00001354 -0.00012095
12 1 1.849574 10.833678 22.262304 0.05592751 0.02583289 0.02004919 0.00006072 0.00009872 0.00010281
13 1 27.361384 16.261778 28.405113 0.07584495 -0.00741236 -0.01258041 -0.00001591 -0.00012358 -0.00002603
14 1 13.620335 31.358736 29.848950 -0.01004053 -0.03836507 0.04500347 -0.00004800 -0.00032961 0.00000309
15 1 27.145744 21.375000 22.660074 -0.01276557 0.05393069 -0.03406909 137.13204477 751.93773064 -247.03765074
16 1 16.206755 26.656207 0.833468 -0.01545271 -0.06736017 0.06595425 0.00010133 0.00007402 -0.00014118
17 1 6.737162 14.514070 12.580083 -0.05364113 -0.01857950 0.02568887 4.01948390 21.19921750 11.22781511
18 1 8.405259 17.312562 13.116847 -0.01635433 -0.01245725 0.02644912 0.00107045 0.00196205 0.00026920
19 1 21.134600 31.119125 29.297784 -0.01995365 0.01316062 0.00118648 -0.00001601 0.00000738 0.00002254
20 1 23.144262 9.020076 22.277757 0.02111333 0.03397068 -0.00309256 0.00018467 -0.00006592 -0.00004296
21 1 30.665502 12.406326 31.494250 0.01422316 -0.08119348 0.01916473 0.00013081 0.00001331 0.00003928
22 1 8.427559 20.901446 29.704314 0.00719368 0.03195537 -0.04402500 0.00005702 -0.00014715 0.00017139
23 1 6.072640 13.028377 16.716592 -0.01374316 -0.01068948 0.03629194 0.00000694 -0.00009773 0.00093134
24 1 32.663183 24.526960 3.368768 0.01115866 0.00046441 -0.04984718 -11544.38413628 332564.37104284 -14916.01859428
25 1 23.731314 11.537186 8.203218 0.02536465 -0.01321691 -0.04122528 0.00001389 -0.00010025 -0.00000125
26 1 29.776206 2.281633 5.573726 -0.02766289 -0.03939376 0.01630474 0.00001502 -0.00005930 0.00017371
27 1 16.774951 20.137957 12.131072 -0.04880939 -0.04190291 -0.06541778 -0.00229161 -0.00052484 0.00069028
28 1 26.343167 17.835164 0.877535 0.00364371 0.01785583 -0.02596472 -254601.19660884 528012.14452563 576674.76961116
29 1 5.248548 16.654087 22.548968 0.01042000 -0.00203196 0.04369959 0.00000330 0.00002525 0.00000239
30 1 19.517275 9.206300 17.635029 0.02124520 0.05662024 -0.01904446 -0.00009260 -0.00001618 -0.00009177
31 1 22.965500 21.144252 32.640079 -0.04263070 -0.01573592 -0.03834636 -0.00033131 0.00037267 0.00002385
32 1 1.796620 4.472032 24.083376 -0.03567779 0.01950686 0.03687477 -0.00003609 0.00000638 -0.00001585
33 1 11.404224 6.692534 26.018115 -0.01650299 0.02884104 -0.04750728 -0.00005303 0.00004846 -0.00013244
34 1 30.521635 27.189492 8.984897 -0.00475553 -0.05864204 0.00854577 -0.00005925 -0.00010081 0.00015071
35 1 19.662192 0.106074 30.909804 -0.02196612 -0.05033094 0.01168362 0.00002675 -0.00014766 -0.00010208
36 1 2.425698 17.214032 27.354939 0.01038035 -0.02548579 0.00300805 0.00002749 -0.00016143 -0.00000668
37 1 16.007227 12.354500 7.076737 -0.00792952 -0.02231151 0.03851809 -0.00009190 -0.00010677 0.00005306
38 1 22.411760 1.007275 4.772979 0.02867909 -0.03459347 0.04416587 42.48055174 -5.78640006 -60.79373372
39 1 29.231689 30.160958 7.886752 -0.02725841 0.01464353 0.04301931 -0.00001650 0.00005291 -0.00001307
40 1 11.427915 19.391346 11.519174 -0.02403718 -0.01744136 0.06030481 0.00000902 0.00007256 -0.00004958
41 1 6.082894 13.365246 20.916436 0.01690087 -0.00594178 -0.01032939 0.00007298 -0.00009357 -0.00013902
42 1 4.018273 22.138855 11.639892 -0.00872383 -0.05377681 0.01902658 0.32270816 -12.76662650 0.23363501
43 1 14.923664 18.409279 7.827630 -0.00177661 -0.04200769 0.01422082 0.00002914 -0.00015246 -0.00023244
44 1 12.455327 11.247210 30.453580 -0.00322012 0.00498839 -0.04304652 16039.87071647 -18386.65424542 37078.45390937
45 1 8.411218 18.429433 18.213106 -0.03825384 -0.04209590 -0.02989341 -0.00004857 0.00000899 -0.00003642
46 1 19.726739 10.875081 6.399937 0.01576462 -0.00249980 0.01135310 -147888.01351893 229717.98980776 -30526.15365225
47 1 25.675400 9.403395 0.379083 -0.03240619 0.00387282 -0.03453301 -0.00722950 0.00773386 0.00119997
48 1 8.268180 7.982208 29.712988 -0.01861305 -0.05072090 -0.03926511 -0.00015653 -0.00015076 -0.00011762
49 1 8.404680 8.007384 27.395967 -0.00720178 0.02038308 -0.04059493 -0.00001832 -0.00008782 0.00004994
50 1 14.107409 18.356347 21.275773 0.01252516 -0.01746003 0.00757572 0.00000060 0.00006364 -0.00005866
51 1 14.543872 30.979104 12.591000 -0.03969425 0.01310368 0.00417702 0.00003119 0.00001265 -0.00005578
52 1 21.258941 25.984030 26.608059 0.06015671 -0.00696119 -0.01082462 0.00010204 -0.00000356 -0.00001469
53 1 22.833926 4.607008 18.515949 0.03098144 -0.01849741 -0.00578381 -0.00010933 -0.00010031 0.00000203
54 1 25.196969 22.671032 21.204736 -0.04175871 0.03214037 -0.01971158 0.02423164 -0.01619327 0.01824984
55 1 32.296740 17.978169 7.193734 -0.05729146 0.04059098 -0.01108063 286.08595028 -199.20828141 -142.70546905
56 1 15.032187 7.307486 21.221338 -0.03682398 0.06363197 0.05329523 71.89172622 -45.23824787 -16.88422930
57 1 13.032087 16.753158 18.741247 0.03538366 -0.02621004 0.04542621 -0.00012452 0.00009648 0.00010192
58 1 8.489609 30.554052 15.833077 -0.04551351 0.06954502 0.07913172 0.00009737 0.00002153 0.00009903
59 1 25.647220 1.499284 21.407561 -0.01701927 -0.01620332 0.03878465 0.00010042 -0.00001899 -0.00002540
60 1 21.583037 9.676738 3.064289 -0.03592999 0.00007158 0.04209693 -0.00045532 -0.00170706 0.00011664
61 1 1.278913 5.367406 21.670241 0.01628386 -0.01439661 -0.00955805 0.00005191 0.00022756 -0.00009856
62 1 18.902132 1.924119 6.932371 -0.03040511 -0.00518098 -0.02931739 -0.00091026 0.00014073 0.00071417
63 1 6.235280 18.241431 2.198284 -0.02929133 -0.00086789 -0.00441106 -0.00000573 -0.00002652 -0.00009113
64 1 1.629802 16.287685 11.621230 0.00249161 -0.04549032 -0.03193828 8.98475284 -156.25528610 -66.84668362
65 1 4.240976 1.319170 24.318444 -0.01559948 0.00219545 -0.02328008 0.00006425 -0.00006540 -0.00005144
66 1 9.564644 30.855366 20.645322 -0.01048271 0.05058107 -0.01016612 -821.35286558 -307.30984820 -668.01196462
67 1 0.226790 0.959839 6.012211 -0.00429021 0.03494379 -0.01770034 0.00013700 0.00003988 0.00009450
68 1 7.455215 3.447691 4.026870 0.05943566 0.01394116 0.03383942 -0.00002080 -0.00002570 0.00004674
69 1 27.897948 29.891114 7.496092 0.02362019 0.02771458 -0.00532230 0.00011344 0.00014632 0.00003607
70 1 14.977886 29.304250 15.271711 0.01331736 0.02451429 -0.02020243 0.00002960 -0.00012268 -0.00007697
71 1 19.710545 14.388993 20.521294 0.03883317 -0.00569108 -0.01354512 0.00012017 -0.00002052 0.00003652
72 1 18.968498 28.698154 3.318916 0.04335276 -0.01796819 -0.02300795 -0.00012938 -0.00005252 -0.00005811
73 1 25.315230 14.634837 2.435305 -0.01683647 0.00060479 -0.01504716 0.00030952 -0.00043119 0.00169108
74 1 18.276232 11.594143 19.157114 -0.01455437 0.00527526 -0.00400487 0.00015557 0.00010187 -0.00005274
75 1 3.847247 20.633514 20.720044 0.04960296 0.00877772 -0.01994693 -0.00002566 -0.00014195 0.00003362
76 1 19.323661 26.122997 25.500184 -0.03229457 -0.00387140 -0.04588460 -0.00008712 0.00012223 -0.00008637
77 1 22.398235 17.736023 15.434523 0.04682748 0.03842376 0.03491213 0.00009969 -0.00012120 0.00015408
78 1 5.183649 3.512426 18.062634 0.03906597 -0.01508262 -0.01470709 0.00011420 0.00025751 0.00001147
79 1 0.240203 14.013042 10.126876 0.00518562 -0.00920930 -0.04440345 36.24029562 17.96192412 18.27721801
80 1 22.057001 12.019212 2.077566 -0.00253253 0.01862926 -0.00492314 0.79266622 -0.23159736 -0.66041909
81 1 7.049015 5.093881 4.177152 -0.00770591 -0.01866676 0.00634769 0.00009215 0.00006498 -0.00015492
82 1 29.502924 31.442451 2.490558 0.04206511 0.01563610 0.02063649 0.00011725 -0.00007883 -0.00001141
83 1 10.091086 11.428940 26.309547 0.05558480 0.01035262 0.02241353 -0.00028430 0.00001701 -0.00051982
84 1 31.636221 31.661591 14.893800 0.00953453 0.00194167 0.03353548 -0.00001089 -0.00012424 -0.00001460
85 1 20.267337 15.191997 20.178204 0.05848785 -0.05050108 0.04250674 -0.00005438 -0.00008853 0.00000901
86 1 21.670048 14.512099 4.067392 -0.01350713 0.01283387 0.04126318 0.00003402 0.00060302 0.00004277
87 1 6.895825 10.041885 30.502900 0.01914666 0.01293168 0.00153422 -0.00015830 -0.00017716 0.00007103
88 1 2.982104 15.676672 1.026880 -0.01798499 0.01248850 0.03465030 -2009.30352909 -1371.69890097 -1648.85408242
89 1 23.365136 11.954270 2.203767 -0.00935146 -0.03128373 -0.01636978 -18.90921368 -59.52303688 -702.01587721
90 1 22.279738 25.418967 9.213666 0.01317269 -0.01061600 0.00147678 0.00005507 0.00002637 -0.00006525
91 1 12.991108 25.373212 14.363349 0.02905104 0.03375005 0.04836073 -68.20949113 -16.19547088 0.79382459
92 1 24.937689 5.675709 11.418341 0.00865122 -0.01619286 0.03033636 0.00005280 -0.00021240 0.00015634
93 1 28.054849 21.470055 26.202432 0.04974437 -0.06847510 -0.00315780 0.00062665 0.00013209 0.00220786
94 1 27.038004 0.561739 26.199206 0.00671756 -0.04135343 -0.00252166 0.00023953 -0.00007375 -0.00005240
95 1 18.834166 19.478873 5.157180 0.01034609 -0.03055423 0.01171740 8612.07519393 -1840.22090053 16537.21567346
96 1 17.275653 23.260939 28.905902 0.00858001 -0.04584908 -0.00735447 0.00001324 -0.00002890 -0.00007466
97 1 20.541117 2.491787 17.658681 0.01756133 -0.05837052 -0.01243980 0.00003975 -0.00020408 0.00004177
98 1 7.063682 2.491544 0.507428 -0.03735530 0.00242070 0.03664866 -0.00003058 -0.00001718 -0.00006117
99 1 23.253871 11.118006 5.697273 -0.02309596 0.04126866 -0.02223547 0.00236075 -0.00056695 0.00219408
100 1 21.782786 31.593051 25.677079 -0.01708893 -0.04506750 0.02250778 -0.13382210 -0.13028546 -0.00394731
101 1 25.865386 27.930026 29.240295 -0.02065742 0.04593968 0.03263871 0.00005100 -0.00009482 0.00015756
102 1 19.179384 11.830904 23.036439 0.01142965 0.02385216 0.01918751 0.00006305 0.00007269 -0.00015640
103 1 1.986105 5.139018 19.112159 -0.00774782 -0.04584113 0.02627393 -0.00002281 0.00012370 -0.00001616
104 1 6.515033 0.055942 7.592005 0.01106363 0.05488032 -0.04345746 -1549.61246307 1409.09376592 -2604.35304450
105 1 18.108240 15.855728 1.904948 -0.05225842 -0.03467841 -0.07559867 -0.00007981 -0.00018750 -0.00021148
106 1 8.114521 30.483018 30.535329 0.00580580 0.00317956 0.01587398 -1.18617420 0.29821906 -0.29998622
107 1 29.869141 8.078179 18.042407 -0.00615147 -0.00098404 0.01096925 0.00010109 -0.00011289 -0.00005393
108 1 15.032856 19.522198 20.762381 -0.00624196 -0.01899054 0.01003907 -0.00008581 -0.00010426 -0.00013157
109 1 10.281006 28.324909 13.473123 -0.00080041 0.01042565 -0.03121750 -1140.45436813 -574.96270632 -843.78415341
110 1 14.414672 20.531333 17.776687 -0.01207133 -0.00284058 -0.00251959 -0.00004461 -0.00003042 -0.00022734
111 1 24.062952 9.516300 3.941309 -0.00641195 0.02676789 0.00554989 -0.00004985 0.00048693 0.00030727
112 1 2.063142 31.342394 24.721517 0.05764142 0.04537626 0.02458903 -0.00009080 0.00003664 -0.00008074
113 1 1.048591 32.204790 20.563003 0.02686365 -0.05851110 -0.00361486 -8.14915172 6.30005080 0.97710044
114 1 30.994113 3.918981 24.703903 0.05602929 0.04077283 -0.05885485 -0.00034116 0.00020365 0.00019737
115 1 10.598173 2.314532 6.446032 -0.01846073 -0.02030980 -0.02304299 0.00041915 0.00028366 0.00000052
116 1 31.699479 12.024778 5.649461 0.00872002 0.01168691 -0.00400847 -0.00018551 -0.00033204 -0.00032542
117 1 32.409777 24.199131 20.871636 -0.02284693 0.01048519 0.03304127 0.00029302 -0.00007955 0.00004785
118 1 16.336456 4.996019 3.140914 -0.01027358 -0.00397502 -0.01945863 -0.00006613 -0.00007054 -0.00030184
119 1 28.948305 32.094695 28.513672 0.00469693 -0.01864447 -0.02921232 0.00014491 0.00000118 -0.00000300
120 1 30.091855 31.787376 16.286999 0.01613911 -0.01321081 0.00481328 0.00001183 -0.00002342 -0.00031584
121 1 0.560728 13.788858 6.219259 -0.00584950 -0.03977262 -0.02452262 0.00032138 -0.00106044 -0.00199558
122 1 30.846939 28.247368 9.380138 -0.05261818 -0.04120258 0.04364748 240.32496397 46.65496122 220.90268470
123 1 22.325821 5.466780 23.202966 -0.02073168 -0.02442947 0.02711032 1493.09879521 506.65874518 -3800.60437172
124 1 15.410610 12.523063 18.125934 -0.00694088 0.03352967 -0.05602704 21.68561484 -93.79388357 -33.00151334
125 1 1.832000 7.876930 21.275347 -0.04650012 -0.01427565 -0.03122447 0.00013356 -0.00003686 0.00000681
126 1 30.272095 1.847911 19.769158 0.02922213 -0.00526438 0.06533990 -0.00073838 0.00043446 -0.00018852
127 1 22.587572 12.006727 15.819633 0.03394258 0.01802520 -0.01318219 -0.00008482 0.00011767 -0.00003702
128 1 17.458716 22.136202 5.690816 -0.02956121 0.04772156 0.02401474 0.00147204 -0.00280674 -0.00066389
129 1 2.126036 26.196141 12.803140 0.02751864 -0.00668527 0.02482542 -0.00009090 0.00052682 0.00012232
130 1 1.059554 24.332862 13.449219 0.02423978 0.00941053 -0.00792368 -0.00103728 0.00071211 0.00055538
131 1 2.844566 25.274431 9.694876 0.03135894 -0.04269369 0.05753021 -0.00037250 0.00156387 -0.00093116
132 1 20.218079 9.968521 7.894256 -0.01933544 0.03696211 0.03103198 -3.74144914 6.90333127 -11.37890591
133 1 11.595274 24.592275 14.687443 -0.01348417 0.02618041 0.02702453 48.15192263 26.93845035 -11.17980440
134 1 3.309688 11.072634 28.261564 0.04150824 -0.00829765 -0.03420980 0.00005286 -0.00000220 -0.00015952
135 1 29.733913 17.559477 7.066953 -0.02324472 0.05149599 -0.01935011 -0.14915356 0.54799021 0.21901915
136 1 5.222378 23.865472 32.199025 -0.04041968 0.03080170 0.02742199 0.00004562 -0.00001410 -0.00012726
137 1 18.708893 27.797761 31.138407 -0.02792293 -0.03831776 0.01828063 0.00002480 0.00007235 0.00000960
138 1 31.875179 14.293165 30.248207 -0.02068406 -0.01831287 0.09658612 -0.00005923 -0.00006234 -0.00019349
139 1 11.972677 10.888670 27.736991 -0.00017222 0.01885470 0.01166468 -50.63950718 -35.10244097 73.71580075
140 1 12.743727 30.155503 29.560053 -0.02608831 0.01072187 0.03495207 -95578374.70768996 -2403166.72011099 -49451357.65150549
141 1 27.422981 17.040176 15.498949 -0.00226578 -0.02043141 0.02106846 -3.05990238 -17.76690297 -18.68647088
142 1 5.184663 15.425892 12.996142 -0.01212184 -0.03801367 -0.03103656 9.19404676 -5.39904041 -2.46274380
143 1 27.228013 7.427286 26.444475 -0.02005765 -0.01010120 0.03177832 0.00016038 -0.00005945 0.00006782
144 1 24.563797 28.927341 11.294452 -0.05560679 0.04279222 -0.04205924 -0.00024717 0.00012333 -0.00011296
145 1 24.925736 28.735353 11.364465 -0.01175695 0.00100086 -0.00332067 -0.00008415 -0.00004113 0.00023344
146 1 11.207034 16.543370 25.329606 -0.04304098 -0.04834460 0.00897636 0.00000931 0.00018526 -0.00015890
147 1 2.208513 6.617445 24.987083 0.00443850 0.04808404 -0.01624684 6.02293287 -42.46771360 2.55149187
148 1 26.018172 19.158512 29.488850 0.04858958 0.00099910 0.02728787 -0.00006740 0.00027835 -0.00085124
149 1 21.835435 30.945057 12.066831 0.01672428 -0.01384797 -0.04795406 201.46421343 -44.75085352 -269.26427379
150 1 11.801533 9.132347 16.024826 0.03803571 -0.01036881 -0.01792391 -0.00023439 -0.00014303 -0.00014378
151 1 9.750791 20.673581 11.384973 -0.00915621 0.04788027 -0.00610343 0.00003560 -0.00022752 -0.00005608
152 1 12.660987 19.213057 20.235208 -0.00691561 0.02733617 -0.00029206 -0.00007032 0.00002003 0.00001492
153 1 28.357237 8.840412 19.272208 0.07063559 -0.00272846 0.00987255 -0.00012585 -0.00010897 0.00001984
154 1 26.097722 21.665835 7.802654 -0.01033621 -0.05966428 -0.04358344 0.00006409 0.00016844 0.00016574
155 1 19.211640 13.022791 24.201558 -0.03643677 -0.02953749 0.02545934 0.00013416 0.00006588 0.00005582
156 1 14.704958 24.285595 2.836603 -0.00092025 0.03015146 0.05797915 -859.08699026 -4091.78279046 695.27959925
157 1 30.296365 17.745834 16.712227 -0.03332213 0.01932542 -0.00326585 0.00100409 0.00016009 0.00047979
158 1 5.093368 25.707637 32.267842 0.00918800 0.02684383 -0.03674638 -0.00000409 -0.00010220 0.00000778
159 1 27.779915 2.066439 29.929715 -0.01660858 -0.00212399 0.06723334 -0.00015742 -0.00136094 -0.00202754
160 1 22.872085 11.130595 0.550106 0.05045387 -0.06246777 0.02655317 67416.62546245 35094.88295508 14883.30553716
161 1 18.894842 6.321306 15.226708 -0.00110639 -0.00924785 0.00878589 0.00004411 0.00000253 0.00001468
162 1 10.216951 15.460221 29.173469 0.01005006 0.01087247 0.00971918 -0.00031463 0.00088057 0.00017859
163 1 23.427955 31.856627 15.384177 0.02581573 0.00463814 0.01218903 11.97813131 3.95406869 -4.50802150
164 1 13.772191 26.864947 6.887357 -0.09062045 0.00080328 0.03514550 -0.00007504 0.00014283 0.00020240
165 1 4.600727 23.255369 31.241445 0.01540374 0.07224657 -0.01260738 0.00007398 -0.00004775 0.00017842
166 1 31.802486 23.374394 30.608270 -0.04565689 -0.02080614 0.01306455 -0.00009920 -0.00014717 -0.00009219
167 1 24.339283 21.165312 19.235340 0.03023184 0.00494475 0.04404773 -0.00078975 0.00009486 -0.00068404
168 1 6.262254 24.262008 14.877641 -0.04173314 -0.01054076 0.04246481 0.00037342 0.00028441 0.00065618
169 1 29.339782 5.615951 0.821386 0.00995491 0.02290904 -0.00553658 -0.72711543 -0.70712194 -0.34750009
170 1 16.526090 27.350892 7.607173 -0.00618854 0.02237581 -0.03486622 0.00015290 0.00008834 0.00009455
171 1 26.823683 29.897191 27.235503 -0.04822793 -0.03222512 0.05049157 0.00031562 0.00001495 0.00014852
172 1 15.706455 30.868738 7.344752 0.01393930 0.00401167 0.04198467 -0.00003812 -0.00003474 0.00006832
173 1 10.616455 8.385068 28.505608 0.04480932 0.01751191 -0.05249365 0.00278540 0.00582049 -0.00311638
174 1 20.618484 30.134129 4.018876 -0.02870236 -0.04245860 -0.00023535 52192.70436631 -87844.83887026 27005.28458751
175 1 21.802844 10.203438 1.784427 -0.02620328 -0.05722021 -0.00701794 5.33918111 4.67129356 -5.79855302
176 1 27.133975 18.300179 3.776409 -0.02243598 -0.01378646 0.04531587 -0.00157708 -0.00021256 -0.00394952
177 1 8.304839 23.673865 1.835834 0.01132961 0.07526219 0.00694017 212.84972935 116.37515463 -219.59166152
178 1 7.334005 32.669803 2.452613 0.03733843 0.00877298 -0.01576787 0.00008062 -0.00007799 -0.00009681
179 1 7.151362 31.213666 0.002001 -0.00963468 -0.00716488 0.00168097 0.03312788 -0.02514301 -0.07936311
180 1 20.928163 32.185177 31.444198 0.06341959 0.01941635 0.01282733 0.00010094 -0.00005427 -0.00005387
181 1 2.141012 10.472955 20.949912 0.09146908 0.01595774 0.02575298 -0.00003150 0.00027990 -0.00031542
182 1 26.911596 0.549563 21.707960 0.00908968 0.03344822 0.02161880 -0.00004000 -0.00009024 0.00003294
183 1 31.385220 20.682588 32.062560 -0.00509257 -0.00501570 0.03288116 91.15071801 -52.60925223 318.49621907
184 1 20.256052 21.326393 5.472390 -0.01156097 0.03745041 0.00706619 -0.24624201 -0.32007674 -0.05477136
185 1 4.694611 1.224493 5.348861 0.01120202 -0.00188287 -0.01506959 0.00031732 -0.00028141 0.00051858
186 1 1.071270 20.884551 0.620437 0.01785384 -0.00766281 0.05001146 -60.43666730 -6.68002945 -239.12553450
187 1 3.408928 13.573306 19.688083 -0.03412451 0.03216544 0.01759833 0.00001196 -0.00020216 0.00022445
188 1 24.849552 22.381485 10.075877 0.02061392 0.00896992 -0.01306495 10207199.28697027 22254357.98844853 1743616.31487079
189 1 28.766032 26.549112 21.083502 0.04346142 -0.00294801 0.02467115 0.00007682 0.00014418 -0.00019759
190 1 2.881294 32.683644 26.771967 -0.00466128 0.01986385 -0.01094851 0.00020129 0.00005077 0.00026106
191 1 11.371396 19.434501 27.443641 -0.02688889 0.02410832 -0.00166396 0.11656207 -0.50852185 0.15789385
192 1 2.558500 8.367340 26.598574 -0.06444119 0.02242149 0.02275021 -0.04320854 -0.21661024 -0.19951512
193 1 30.672575 19.555250 1.013305 -0.03027996 -0.02937458 0.04683770 0.27049287 0.42995529 -0.68375961
194 1 15.472617 13.130061 5.455268 0.03096902 -0.00332235 0.01665803 -0.00039710 0.00031700 -0.00009416
195 1 9.465870 25.889682 31.336758 -0.03927367 -0.00830570 0.02836741 0.00042980 0.00013755 -0.00100722
196 1 24.011310 0.746044 5.786598 0.03831347 -0.01616065 0.01965747 -5.83596081 0.95314358 -3.69823722
197 1 3.602655 7.994382 15.015073 0.03463755 0.00673674 0.00837043 -22890569.23264684 -6556238.01605828 4321066.42729787
198 1 20.608439 1.728845 19.886799 -0.00100997 0.01921849 0.00428684 -0.00001661 -0.00000429 -0.00029029
199 1 27.354787 32.003759 25.011852 -0.02401593 -0.00113305 0.02331061 0.00019770 -0.00015781 0.00012666
200 1 22.174269 16.407148 9.807875 -0.01354605 -0.02244031 -0.01018919 0.00034004 -0.00038166 -0.00024423
201 1 14.881368 16.983839 4.831816 -0.02780180 0.03258333 -0.01973843 -0.00047389 -0.00025359 -0.00015166
202 1 11.717453 0.255382 9.743053 0.00610494 0.02907120 0.04883642 0.00030156 0.00021015 -0.00012308
203 1 27.412307 9.013203 26.889994 0.03713813 -0.01128079 0.06994591 -0.00017485 -0.00015259 -0.00004233
204 1 19.850556 13.294139 10.540211 -0.05239580 -0.00729718 -0.01501303 -119.83475877 9.53631289 -50.55566706
205 1 4.729144 13.978522 31.867298 0.03492870 -0.05059418 0.01070660 0.00001891 -0.00006995 -0.00003746
206 1 32.478704 26.850900 15.866274 0.05177985 -0.00555935 -0.01998518 0.00003390 0.00001826 -0.00000362
207 1 22.022009 1.034737 29.754007 0.03682124 0.01553549 -0.05827461 -0.00016030 0.00030704 0.00064756
208 1 18.793080 11.301160 4.995566 0.01019898 0.01762479 0.00482116 13.06684734 -5.96335766 19.65561141
209 1 8.122663 12.094254 6.659132 0.00919394 0.00823792 0.00221504 0.00005746 0.00010794 -0.00000954
210 1 8.925076 4.866131 0.395594 -0.07684077 -0.02943871 -0.06609972 -4622.23959968 6321.17871417 3280.77963192
211 1 21.320325 21.026814 18.520466 -0.01367355 -0.00103914 0.03955979 0.00003889 0.00010386 0.00001869
212 1 3.233527 30.101875 30.428798 0.01960035 -0.01241930 -0.00724266 -0.00054418 -0.00010961 0.00018874
213 1 12.313491 30.968248 8.756751 0.02498897 0.01355520 0.01201604 0.00014944 0.00016649 -0.00008581
214 1 16.841538 3.599065 32.704950 -0.04373890 0.00712592 -0.00791414 0.00006517 0.00006660 0.00007194
215 1 25.661700 0.634040 6.372488 -0.02039382 -0.03895509 0.03786458 0.00204649 -0.00020730 0.00108699
216 1 3.421614 20.639335 27.176101 -0.05733386 -0.00676895 0.02102272 0.00012897 0.00015307 -0.00000979
217 1 18.324013 8.409198 7.501691 0.01558205 0.05319784 0.00462572 0.00122474 0.00221129 -0.00100368
218 1 25.301377 30.510174 20.818900 -0.00070021 0.02797348 0.02225716 -0.00002006 -0.00014716 0.00015450
219 1 16.525649 12.611647 11.714540 -0.00834876 0.01302629 -0.02120836 -0.00214652 -0.00046337 0.00078525
220 1 25.209871 20.184027 30.123835 0.04701127 0.00918112 0.02098404 -0.00031305 0.00026138 -0.00084690
221 1 3.324015 29.318588 12.198141 0.00794590 0.06623109 0.02011863 0.00019811 -0.00008697 0.00024296
222 1 10.698714 1.635308 31.070944 -0.02433778 0.03925426 0.05560754 -3.18698973 -4.43289614 -1.96141376
223 1 13.292968 7.131171 11.419927 0.04213047 0.01673128 0.03148375 -0.00010664 -0.00009471 -0.00000593
224 1 24.298159 16.536572 23.914189 0.02577499 -0.01861180 -0.02826428 -0.00010061 -0.00031592 0.00014184
225 1 19.264721 32.105437 7.047030 -0.02048293 -0.05419289 -0.01618618 -0.00159207 0.00058471 0.00199849
226 1 15.702691 28.070393 14.169495 0.00189975 -0.04381446 0.03122216 0.00159246 0.00124691 -0.00023942
227 1 9.461659 9.506369 31.285582 0.02306455 -0.01188183 -0.02671747 -0.00238212 -0.00125848 0.00093395
228 1 25.580974 14.178298 0.930173 0.04944738 0.03380970 0.02874625 0.00317641 0.00175302 -0.00045018
229 1 12.678080 20.964807 20.894010 -0.01720894 -0.00859902 -0.01347979 -0.00023393 -0.00001244 -0.00008892
230 1 7.107930 20.598949 22.103633 -0.00057409 -0.01013001 0.02740147 -0.00022610 -0.00006517 -0.00033084
231 1 32.119180 23.595896 12.632126 -0.01432209 0.03746043 -0.04814011 -0.00030148 0.00010692 0.00028099
232 1 8.979047 28.657203 27.948085 -0.06063104 -0.01013366 -0.01563056 -0.00039464 -0.00152623 -0.00192851
233 1 6.302383 18.583335 20.443646 -0.03169071 0.05631774 0.04683546 -0.00005125 -0.00012921 -0.00003489
234 1 17.831794 13.416324 19.842083 0.08440286 0.01247422 0.01590464 -0.00091203 -0.00012775 -0.00056144
235 1 9.242941 5.547234 11.943103 -0.00317717 0.00573232 -0.01350989 0.00012109 -0.00018591 0.00014648
236 1 2.489767 8.127558 31.119890 0.03393888 -0.03915112 0.00551402 0.00005622 -0.00007583 0.00014817
237 1 32.752108 4.157648 9.196082 0.04860315 -0.00928919 0.01538105 0.00007465 -0.00012053 0.00013634
238 1 19.760462 11.086873 2.838142 0.08772959 0.01317582 -0.00926869 49.11664027 -906.35626544 -501.19291385
239 1 17.301417 28.385908 20.637776 -0.04317110 -0.08085270 -0.01798042 -0.00018076 0.00009183 -0.00000290
240 1 8.893667 19.166604 5.028485 0.02916421 -0.04429041 0.04566737 12493.56932589 16434.67832383 -20205.96943096
241 1 22.115812 18.569074 7.268719 -0.00363381 -0.08695126 0.01670418 0.00134614 -0.00061490 0.00021708
242 1 28.370054 6.833775 5.432102 -0.01629194 0.00618037 -0.05596536 0.00000301 -0.00006099 0.00006279
243 1 3.040336 10.923470 20.316442 0.00360669 -0.04422080 -0.00798711 0.00008760 0.00013679 0.00006529
244 1 0.155030 22.513565 23.887091 -0.02614258 -0.04441400 0.02205144 0.00003391 -0.00003913 0.00022725
245 1 4.335101 20.077572 30.172762 0.03347585 0.02369985 -0.04344837 0.00057619 -0.00006033 -0.00037942
246 1 31.715124 32.161735 7.546596 0.02110258 0.00687858 -0.00685341 0.00001953 0.00079454 -0.00032018
247 1 4.951504 6.160638 12.944086 -0.01454959 -0.01074322 -0.03860904 -0.00103816 0.00095492 0.00122094
248 1 0.099313 1.752857 27.075023 -0.02308924 0.03323575 -0.02289004 -0.00009562 -0.00009712 0.00002086
249 1 12.636933 18.644340 6.731252 0.03100230 -0.05268909 0.05720209 -72.35088194 94.28526250 23.74642226
250 1 6.107189 30.073574 16.911562 0.06683995 -0.08225235 0.03843854 -0.00025288 0.00006130 -0.00014172
251 1 15.972282 17.761548 16.292043 0.01232630 0.00015787 -0.01988311 -0.00003686 0.00016637 0.00002765
252 1 7.681474 26.854067 13.888363 0.00819430 -0.02578489 -0.03052555 0.00352292 0.00215928 -0.00050995
253 1 21.744702 23.687474 3.373858 0.03507101 0.06261369 0.04126582 0.00021809 0.00024287 -0.00029165
254 1 14.411751 18.006314 27.688917 0.03781902 0.06570310 0.00385912 0.00222707 -0.00101269 0.00013970
255 1 14.746362 31.704737 19.865224 0.03294210 -0.00178179 -0.01734156 0.00035179 0.00001263 -0.00011788
256 1 8.744280 28.740147 19.791740 -0.00706789 -0.01869246 -0.01291748 0.08957076 0.23084300 0.09342266
257 1 21.262063 17.880163 22.402623 0.00285985 -0.00285090 0.00222815 -0.00022654 0.00009609 0.00015094
258 1 28.105781 27.467328 22.181422 0.01524461 -0.01358386 -0.01328090 -0.71294048 2.04788930 -1.74539161
259 1 0.516309 4.385848 29.591888 0.08349232 -0.01235358 0.01113745 -0.00019696 -0.00018830 -0.00001631
260 1 5.147064 22.019461 14.961874 -0.04429747 -0.03727030 0.01464533 0.00081897 -0.00005447 0.00228877
261 1 29.039826 23.540797 20.640641 0.02407901 0.04759943 0.00488724 0.00171054 0.00062409 -0.00199216
262 1 27.495097 28.075135 14.117684 0.01917939 0.02334378 -0.05400773 0.00009361 -0.00005434 0.00003977
263 1 24.553754 22.048539 1.618287 -0.02230605 -0.01040894 -0.02579949 4239.72300029 -8412.86868127 -914.46143119
264 1 17.641174 22.538994 11.113078 -0.02190112 0.02520966 -0.01001648 0.00452348 -0.00316207 0.00004435
265 1 21.687340 15.622727 4.132982 -0.05123769 -0.03184436 -0.01176045 -0.00003963 0.00101351 0.00043205
266 1 30.622075 5.009106 15.007303 -0.07153720 -0.01215237 0.06039780 -0.00024893 -0.00015229 0.00021046
267 1 2.517677 4.991687 25.001988 -0.02628325 0.00532468 -0.02890301 -8.36685884 48.96517603 11.38736814
268 1 3.519149 6.948412 3.987205 0.03681869 -0.00326633 -0.06883190 -1.14734159 -2.94738353 -2.94654896
269 1 5.789944 30.928110 11.509564 0.06096808 0.01436779 0.00417548 -0.00018441 -0.00021651 0.00070883
270 1 0.896025 8.843033 5.896850 0.01539662 0.01291249 -0.04171914 79.51237205 997.24948714 -2513.15250717
271 1 19.684687 18.227500 22.843203 -0.06055880 -0.01088097 0.06968191 0.00014839 -0.00002720 0.00008008
272 1 16.274954 31.591782 19.430836 0.04576038 0.00842782 -0.00904560 -0.00006430 0.00001020 -0.00006696
273 1 2.808683 5.453704 26.748463 -0.01791867 -0.00017349 0.02108508 -2.27693988 -2.57518543 -12.76069727
274 1 9.912537 16.507540 3.113106 -0.02704775 -0.02334641 -0.02872875 0.00069675 -0.00197061 -0.00173383
275 1 15.422495 13.294854 21.921068 -0.00630749 -0.00350644 -0.05756690 -1244.04900562 526.67001663 13.72326721
276 1 24.914693 25.767528 29.936563 -0.00534228 0.01765337 -0.04921808 -0.00019059 -0.00008394 -0.00011070
277 1 6.068221 6.363978 0.765311 0.04619619 -0.00113594 0.00483647 -0.00065887 0.00055221 -0.00091853
278 1 16.537581 9.414347 1.579163 0.01287084 -0.02001937 0.00110152 -0.00178048 -0.00098089 -0.00082454
279 1 0.125716 21.111819 10.729598 0.06328968 0.04558454 -0.04870815 -0.00128428 0.00050171 0.00013154
280 1 24.320615 26.993896 30.227972 0.00009691 0.02718089 -0.05049467 -0.00013217 -0.00011144 -0.00002033
281 1 32.173488 31.744155 28.731976 0.02769297 0.07462213 -0.02098155 0.00014998 0.00003004 -0.00014248
282 1 3.628869 17.804308 17.296303 -0.04520867 -0.00955982 0.00364062 -0.00002806 0.00003799 0.00005164
283 1 26.089354 28.716502 1.918234 0.01777638 -0.06599208 -0.00327349 -2120.27147661 -12421.52955639 -1713.92354526
284 1 31.271610 27.091714 18.263925 -0.04730219 0.02846033 0.02557554 0.00035104 -0.00006723 -0.00034462