ITEM: TIMESTEP
0
ITEM: NUMBER OF ATOMS
3535
ITEM: BOX BOUNDS pp pp pp
0.0 35.854534
0.0 35.854534
0.0 35.854534
ITEM: ATOMS id type x y z vx vy vz fx fy fz
1 1 3.551066 8.500589 32.888318 -0.04949371 -0.01745312 -0.03297512 0.00012801 -0.00014949 0.00011137
2 1 18.666055 25.625574 25.141783 0.02132748 -0.06004508 -0.00286589 -0.00025458 0.00004075 -0.00022230
3 1 14.368876 15.632977 14.024217 0.01822570 0.01253496 0.04053465 -0.00002704 0.00002390 -0.00003423
4 1 33.634702 30.628123 29.586474 -0.02756348 0.01449614 0.03303843 -0.00013088 0.00002994 -0.00019799
5 1 33.172864 11.174083 35.604319 0.04371474 0.00443004 0.04993231 12557012.88105440 13585293.65702590 9437403.35506858
6 1 3.942661 12.600382 25.809815 -0.01795630 -0.01416867 -0.03388642 0.00017246 -0.00013306 -0.00018115
7 1 19.034729 25.600380 30.519487 0.01074483 0.08431624 -0.03751895 0.00015788 0.00017594 0.00007566
8 1 9.865174 1.670726 25.304523 0.00493406 0.01134910 -0.02911095 0.00007643 0.00014163 -0.00003588
9 1 24.728152 4.128054 12.201597 -0.02584700 -0.02852236 0.04631375 0.00000684 -0.00015276 -0.00005698
10 1 28.290332 26.839470 22.345876 -0.02930543 -0.01437817 0.00011904 354089.11581423 14595.79386625 2630.36483942
11 1 7.244854 33.544605 15.650193 0.04143266 0.03612870 -0.01487621 -0.00004054 0.00013908 -0.00007977
12 1 12.899835 29.477223 21.043803 0.01857774 -0.01187730 0.01727935 0.00010848 -0.00017097 -0.00015806
13 1 25.143007 35.819974 27.165596 0.03827434 -0.00381119 0.03945235 0.00021392 -0.00002077 -0.00005993
14 1 12.470705 9.948987 28.473680 0.00079114 0.00046495 -0.01845821 0.00003771 -0.00001217 0.00011479
15 1 35.020374 5.388256 15.163561 -0.07095417 0.01466464 0.02175812 -0.00002509 -0.00009656 0.00003242
16 1 20.526280 31.037351 4.536087 -0.01927406 -0.04825010 0.02227945 -0.00004895 -0.00005205 0.00002138
17 1 16.571859 22.709692 21.892378 -0.02714199 0.03230011 -0.03633937 0.00013645 0.00011365 0.00014512
18 1 34.017002 1.605541 2.757012 -0.03182982 0.01480346 -0.01006241 -3976.60101931 -9204.19834128 -36890.14030582
19 1 27.505988 8.750656 2.490753 -0.00830840 -0.02643585 -0.02807760 -0.00002198 -0.00004513 -0.00003755
20 1 1.874425 30.949847 32.652927 0.01151216 -0.00864954 -0.04518222 0.00000670 -0.00015430 -0.00024479
21 1 3.476816 30.012513 4.328164 -0.02938224 0.05568853 -0.00660334 5728546.03183518 -3830441.03211882 -1248532.44541945
22 1 22.079910 17.828647 11.313936 -0.02104876 0.03341029 -0.05873415 0.00002259 0.00013555 0.00006788
23 1 30.534580 12.610483 13.974504 -0.05884315 0.00379448 0.01832121 -0.00003349 -0.00007197 0.00009684
24 1 7.461876 17.114400 24.337422 0.00430351 -0.06589710 0.01090164 0.00006755 -0.00005877 -0.00007433
25 1 16.475200 30.382197 23.273152 0.00204729 -0.01448833 0.07594042 -0.00017246 -0.00003140 -0.00006726
26 1 20.928303 3.441881 6.022340 -0.01605452 0.02443192 0.04191985 0.00009838 0.00004242 0.00019368
27 1 30.774687 18.412060 4.310953 0.02979612 0.01723914 -0.01148057 0.00009743 -0.00005231 0.00014666
28 1 10.580774 17.618911 26.582336 -0.07216076 0.02146523 -0.02536397 -0.00000371 -0.00006198 -0.00001938
29 1 6.748392 23.625546 24.301461 0.01098094 0.02508656 0.01365724 0.00008233 -0.00006037 0.00002197
30 1 3.427651 3.582060 35.388453 -0.00325622 -0.05973279 0.06725524 -0.00003004 0.00000320 0.00014241
31 1 3.477747 21.503699 29.267464 -0.03391983 -0.01965613 0.00976302 0.00004268 0.00005741 0.00010812
32 1 12.976871 12.872725 31.706262 0.02766154 -0.02012286 -0.02987911 -0.00005664 0.00002643 0.00016417
33 1 19.453466 3.812451 25.480483 0.04598889 -0.01288786 0.04218815 -0.00001334 -0.00007229 0.00001345
34 1 34.333289 23.299168 18.953034 -0.00814768 -0.04338080 -0.04060088 0.00002280 -0.00009548 0.00007808
35 1 20.832063 8.670425 20.986508 -0.03962831 0.00588927 0.00254205 0.00007798 -0.00003406 -0.00006188
36 1 2.023841 17.468382 7.404451 0.04679735 -0.02447718 0.00227868 0.00000410 0.00002858 0.00003359
37 1 19.040268 20.160245 20.757515 -0.03730824 -0.00103159 -0.02738045 0.00001146 -0.00013961 0.00005598
38 1 4.951200 24.737232 3.158459 0.00343390 0.04764854 -0.02372759 0.00024143 -0.00006556 -0.00000541
39 1 23.587835 28.079632 6.659304 -0.01413756 0.02407260 -0.00489201 0.00006049 -0.00017212 -0.00007192
40 1 10.673233 16.388842 3.031732 0.02017695 -0.02954154 -0.04175264 -0.00013400 0.00017619 -0.00003658
41 1 29.130591 1.754601 33.669357 0.05607364 -0.03797155 -0.00576327 0.00004616 -0.00004629 -0.00012137
42 1 2.953995 14.265160 26.861552 -0.04616038 0.01741960 -0.03863069 0.00003446 -0.00008265 0.00013026
43 1 17.404803 4.201493 6.326954 0.00036517 -0.02536316 -0.01051765 65.71317270 50.39843600 58.69771287
44 1 29.469385 12.628362 2.729094 0.01993346 0.00506327 0.06058543 -0.00032833 -0.00005663 0.00024420
45 1 0.703715 2.091817 33.606838 -0.08004322 0.00699410 -0.01586075 0.00005295 -0.00006326 -0.00004535
46 1 29.631886 4.294881 32.203676 -0.03535962 -0.01867226 -0.04179407 -0.00002185 0.00019377 0.00010534
47 1 24.622666 5.032243 13.195415 0.00081187 0.02343926 0.00928787 -0.00003912 -0.00001268 0.00004182
48 1 25.031095 32.616663 25.651778 -0.00098393 0.00044001 0.00443585 -0.00003238 -0.00004069 -0.00002222
49 1 17.218148 28.151760 0.384162 0.02699540 -0.02545214 -0.03292101 -0.00001925 0.00012277 0.00000836
50 1 30.617825 21.887965 19.980169 -0.02917538 0.06414199 -0.01432203 0.00014177 -0.00003441 0.00011383
51 1 27.728840 18.493853 13.563948 -0.01000748 0.00470472 -0.03343301 -0.00010084 0.00013032 -0.00016151
52 1 2.363706 4.950919 11.873652 -0.00491506 -0.05675637 -0.02183501 -0.00020548 0.00000349 -0.00006677
53 1 31.353903 0.297198 19.390409 0.01729265 -0.00478522 0.02014518 -0.00019031 0.00010085 0.00003886
54 1 33.807542 23.253784 33.371325 0.01008137 -0.02864253 -0.04311881 0.00004254 -0.00015421 0.00012606
55 1 32.189680 10.904842 26.967118 -0.02476861 -0.00615560 -0.03958439 -0.00014507 0.00002644 -0.00002281
56 1 13.237205 25.605226 12.401342 -0.00332248 0.00224878 0.02876037 -0.00001249 -0.00004839 -0.00002725
57 1 8.427980 5.082237 14.179072 -0.01421931 -0.01186695 0.03883386 -0.00003058 0.00000062 0.00000694
58 1 14.411078 15.316266 11.354269 -0.02918287 -0.03653458 0.00070202 0.00002899 0.00006378 0.00017060
59 1 26.870440 14.885299 20.767012 0.02025961 -0.01447420 -0.00960592 -0.00007722 0.00002487 -0.00001188
60 1 15.316691 30.252266 14.816191 0.00632292 0.00894142 0.02586673 0.00002012 -0.00000981 0.00009477
61 1 5.015191 10.278510 17.785308 -0.00576872 0.00172081 0.03635948 0.00002928 0.00010818 0.00004147
62 1 22.373749 31.693738 31.657011 0.00364230 -0.03803014 0.03350654 36.97651942 20.93395864 -87.89344352
63 1 27.241641 30.722081 32.694155 0.02121517 -0.02979424 0.05114489 0.00052935 -0.00007206 0.00012198
64 1 12.093818 13.180223 5.468481 -0.03030156 0.04090714 -0.01587825 -0.00008938 0.00006213 0.00018510
65 1 30.951935 26.101434 29.792898 -0.01273520 -0.02807344 0.01794578 0.00006506 -0.00003129 0.00004414
66 1 19.644021 33.320786 10.064163 0.03219334 0.06406287 -0.01367294 2254.54616243 1460.34343641 2155.48126852
67 1 3.635187 17.650856 32.191686 -0.00916189 -0.03403694 0.01378116 -0.00016185 -0.00000484 0.00005376
68 1 2.206089 4.967311 29.680767 -0.02587484 0.00957400 -0.03216029 0.00014181 -0.00011348 0.00018153
69 1 20.327740 34.551729 9.171294 -0.02012894 0.01316726 0.01927030 -17.42366282 -31.36853080 22.75341421
70 1 31.742351 9.673533 15.680827 -0.01772576 0.02955277 0.00479496 -0.00003077 0.00010758 0.00006580
71 1 15.338587 26.458566 24.070664 0.00012493 0.00604949 0.00121210 0.00004607 0.00002356 0.00011211
72 1 1.533731 17.102743 25.188155 -0.00699883 -0.01461188 -0.03645310 -0.00001178 0.00008421 0.00010622
73 1 33.876347 12.432103 9.039067 0.00702202 -0.05119752 -0.04322196 0.00004354 -0.00003583 0.00021277
74 1 34.641139 16.471739 20.874961 -0.01321608 -0.01768562 0.00810234 0.00006241 -0.00004808 -0.00005517
75 1 15.574796 12.028333 29.824578 0.01144594 -0.00262665 -0.01242762 0.00004484 -0.00007005 0.00001261
76 1 14.161441 21.639452 9.576596 -0.00558168 0.02160225 0.03952557 -0.00004272 0.00000673 -0.00005145
77 1 7.761475 4.395511 30.329663 0.02679749 0.00860061 0.02221760 0.00007835 -0.00011316 -0.00017777
78 1 6.758726 17.340263 1.703932 0.01834358 0.00508568 0.01871175 0.00004072 -0.00000866 0.00003734
79 1 10.254102 1.020206 33.500874 0.00249299 0.03138603 0.05828801 0.00007659 -0.00015782 -0.00001874
80 1 35.654073 20.757670 3.011599 -0.01231124 0.02691388 0.03185041 -0.00007295 0.00003421 -0.00008527
81 1 23.364867 31.364711 35.048691 0.02424493 0.03066812 0.05981312 0.00071383 -0.00034710 0.00249584
82 1 0.873116 19.437669 15.849578 -0.03794201 -0.00139449 -0.01380973 0.00010604 0.00009388 0.00000810
83 1 33.697286 1.919516 4.740000 0.02873399 -0.02876026 -0.01461085 -196.47827224 -251.96988679 -75.12344766
84 1 24.404673 29.842006 28.622243 0.00462002 -0.01984393 0.01510493 0.00058589 -0.00070370 -0.00103451
85 1 1.756390 25.764725 33.843682 0.05460054 0.01917257 -0.01634587 -0.00004961 -0.00005385 -0.00002529
86 1 19.707451 1.030927 19.291673 -0.01776753 0.04491620 -0.00278762 -0.00003526 -0.00003054 -0.00005265
87 1 0.025745 3.934765 18.429087 -0.01473916 0.04914765 0.02317861 2997.71730116 -3080.39816999 -2249.47039890
88 1 27.945040 11.698505 28.353507 0.02270581 0.04594158 -0.00953810 -0.00009625 -0.00011605 0.00010679
89 1 21.681964 1.556854 19.283197 -0.02813836 0.00290071 -0.02141031 0.00014548 0.00003105 -0.00007798
90 1 22.205062 18.426586 8.189993 -0.00413219 -0.02757567 -0.06045541 -0.00019521 -0.00009048 0.00000421
91 1 11.726482 9.700166 28.737810 -0.00090192 -0.00271550 0.03095765 -0.00011124 -0.00015121 0.00002792
92 1 27.647962 2.300822 3.636513 0.03392885 0.02288528 0.04241885 -0.00020204 0.00002611 0.00007822
93 1 6.864950 21.994326 16.632271 -0.02570224 0.00629580 0.04133992 0.00013986 0.00006856 0.00000972
94 1 33.169293 16.094898 27.135604 -0.00634734 0.01926169 -0.01680994 -0.00002085 0.00007036 0.00007586
95 1 2.916805 20.472985 14.563381 -0.04875325 -0.02651503 0.03985512 0.00002743 -0.00020054 -0.00003616
96 1 12.370391 15.755791 27.914739 -0.02362166 0.03660992 -0.00951016 0.00000392 -0.00005684 0.00020082
97 1 7.279453 20.760556 30.336226 -0.01248890 -0.01669534 -0.01043411 -0.00008811 0.00009760 -0.00010263
98 1 1.318563 11.563743 26.895727 0.02767734 -0.02105381 -0.01522190 -0.00004535 0.00004787 0.00001891
99 1 2.006904 15.033815 12.471546 0.00666216 0.00855773 -0.02228820 0.00012679 0.00014009 0.00006966
100 1 9.383723 27.363357 6.811170 0.01407286 -0.03431219 -0.04396056 0.00021256 -0.00000382 0.00003425
101 1 19.934312 12.506377 18.092469 -0.00937064 0.07560597 0.00323076 -0.00005847 -0.00002144 -0.00009484
102 1 9.762200 2.794699 4.755135 -0.00694900 -0.00109743 0.00139547 -0.00005054 0.00006927 0.00004834
103 1 8.141106 3.568685 6.416027 0.00754634 0.03652649 0.01997079 -0.00014552 0.00007252 0.00014611
104 1 23.861527 10.365969 22.570648 -0.02295522 0.02230003 0.07907862 0.00012168 0.00002278 -0.00003951
105 1 17.694117 16.162578 18.352720 0.00140304 0.01018427 0.00827009 -9.34095915 9.45549019 2.51775441
106 1 35.583144 10.864714 35.402397 0.02871125 0.01591886 -0.04613789 -0.23986176 0.03083519 0.02020452
107 1 17.168104 26.949592 21.648628 -0.00161059 -0.05338320 0.02952472 0.00002289 0.00014730 0.00000418
108 1 0.316933 34.580264 25.837457 -0.03031613 0.00262585 -0.00070048 -0.00009698 -0.00001099 -0.00003978
109 1 20.370092 7.386045 9.479423 -0.01844056 -0.01776503 -0.02229678 -2526.92973365 -26541.79965318 -16500.31688432
110 1 1.517529 16.179908 33.161051 0.01383190 -0.00320036 -0.00872006 -0.00007554 -0.00009870 0.00005341
111 1 21.461736 30.092966 3.370013 0.02840820 -0.01937224 -0.00984709 -0.00006503 -0.00004137 0.00016972
112 1 26.942033 1.484806 3.519319 -0.06151816 -0.07269747 -0.02909200 -0.00010593 -0.00008167 0.00008091
113 1 13.584393 28.081047 16.312773 -0.00028924 0.04452687 0.00843065 -0.00004979 0.00004938 0.00000163
114 1 6.599839 2.185568 21.807384 0.01796736 -0.01496666 -0.02124516 -0.00002161 0.00002633 0.00016927
115 1 15.120162 10.573644 0.269420 0.03999842 0.05107534 -0.00923909 -0.00000053 -0.00006864 0.00021595
116 1 24.873257 31.332409 5.000063 0.03439999 -0.00743882 0.01248923 0.00020891 0.00006821 0.00022635
117 1 27.957889 14.831365 12.275671 -0.05475022 -0.02825289 0.02024569 0.00002580 0.00000407 -0.00000795
118 1 21.465788 34.714792 3.615301 0.02001005 0.06023387 0.04110732 -0.00000376 -0.00007575 -0.00013134
119 1 28.634782 22.082640 22.293464 0.00728977 -0.00791167 -0.05312675 0.00006468 -0.00065270 0.00020039
120 1 35.326783 25.966215 0.236078 0.04095760 -0.01841994 0.00821826 0.00019634 -0.00002812 -0.00009820
121 1 15.912305 16.507445 17.502118 0.02271192 -0.00023028 -0.03191372 3.29095987 -0.63704318 1.57106260
122 1 10.125323 23.653125 3.712612 -0.04632934 -0.01504677 0.06733236 -9585.05745064 -19192.63006316 -47.09301694
123 1 7.055956 21.188966 18.547802 -0.03201879 -0.02481319 -0.02888929 0.00010382 -0.00001025 0.00005936
124 1 3.782903 18.365756 6.262882 -0.02271377 -0.01065929 0.00082613 2.16204812 8.93905457 -4.10499683
125 1 15.002022 33.247013 22.989684 -0.00149882 0.00641677 0.01873751 0.00004074 -0.00005991 -0.00005049
126 1 3.880316 13.679404 29.904132 -0.01802287 0.01219338 0.01460340 0.00010472 0.00009364 0.00005434
127 1 21.659126 31.906976 22.468252 0.00090495 0.00270371 -0.04416212 0.00010065 0.00005797 0.00007816
128 1 20.227684 6.578623 31.623877 -0.04726244 0.00156585 0.00975217 -0.00002012 -0.00000778 -0.00008996
129 1 11.169877 29.031515 5.668092 0.00702618 0.03373379 -0.04909177 -0.00007734 0.00020932 0.00011599
130 1 30.886041 21.862153 22.729832 -0.04773794 -0.03776811 0.01486653 -0.00005048 -0.00013440 0.00000658
131 1 31.960783 31.784682 6.211135 -0.01580541 -0.00084477 -0.03312578 0.00010674 -0.00018791 -0.00005373
132 1 30.446437 15.803878 2.367563 0.01242957 -0.03872789 0.00033123 -0.00001485 0.00022510 -0.00002344
133 1 23.709109 32.136277 28.400552 -0.02899996 -0.02456829 -0.02298720 0.00092736 0.00033725 -0.00229643
134 1 31.389963 34.062537 10.056094 0.02848120 -0.01333393 0.03853238 0.00009154 -0.00017172 0.00004946
135 1 0.877751 4.450281 22.786388 0.02919431 -0.00288349 0.01121982 0.00008972 0.00016958 0.00087468
136 1 4.528004 35.172580 12.648612 -0.06550697 0.04877258 -0.00616247 0.00004875 0.00007263 0.00004850
137 1 6.994568 8.318937 29.549872 -0.02517902 0.02617202 0.05288153 -0.00007394 0.00013494 0.00007827
138 1 33.332297 1.347287 12.191668 -0.02279256 0.00244699 0.03572808 -0.00000023 0.00003883 0.00002657
139 1 20.118826 29.972135 25.239278 -0.00340146 0.04416796 0.03265016 -0.00005934 0.00006676 0.00007194
140 1 28.470699 15.557181 18.678148 0.05414330 -0.04751646 0.00002383 -0.00010763 0.00000960 0.00000211
141 1 6.824060 10.243068 11.572549 -0.01255103 -0.04876635 0.02746210 -187620016.34738797 40002358.73282933 102376547.77361880
142 1 11.030819 28.191662 10.227175 0.02812072 0.05641113 -0.03057945 0.00023646 -0.00005332 0.00004061
143 1 15.373185 1.053235 2.681816 -0.05487735 0.00395536 0.08395167 -0.00007170 -0.00014356 -0.00017997
144 1 10.690884 25.282413 2.748723 0.02189541 -0.01699371 0.01525653 -1.28488679 -3.70163705 2.18989248
145 1 4.491756 35.171379 8.203405 -0.00869426 -0.01385605 -0.00009658 0.00006683 0.00005343 0.00020426
146 1 28.644716 4.704791 10.190354 0.00784520 -0.01612331 0.05237380 -0.00019745 0.00015997 0.00001472
147 1 7.811646 10.549327 30.319494 0.00702113 0.03372142 0.00656110 -0.00010294 0.00008179 -0.00004684
148 1 11.256674 18.330868 1.259576 0.02300594 0.03186305 0.01451757 -0.00005344 -0.00032494 0.00018603
149 1 7.464510 10.283557 18.256314 -0.02727882 0.03830852 -0.03186445 -0.00004413 -0.00002535 0.00003846
150 1 4.186614 6.418314 21.842473 0.05969943 0.02216352 -0.03397083 0.00005818 0.00014695 0.00001429
151 1 17.811643 11.324983 3.000075 0.01721636 0.02257898 -0.02992240 -0.00005093 0.00001530 0.00009667
152 1 7.931918 11.883593 14.494444 -0.09768500 0.00127181 0.03793190 0.00074231 0.00120813 0.00205405
153 1 27.864935 24.768575 27.697266 -0.05734724 -0.00591168 0.00131619 0.00007081 -0.00017039 0.00033455
154 1 34.119454 5.226218 0.778803 0.02991338 0.00065559 -0.00594467 0.00018281 0.00125464 -0.00075143
155 1 31.346805 21.156644 0.839796 0.02325393 -0.01967030 0.02711276 0.00001774 -0.00007811 -0.00002838
156 1 15.832281 2.249293 30.000834 0.05067667 -0.02767938 -0.03239320 -0.00011769 -0.00003122 -0.00000092
157 1 13.491118 16.500238 20.365882 0.04636912 0.00000767 -0.03935333 -0.00055526 0.00012474 0.00031100
158 1 6.264550 2.911603 34.361003 0.01405182 0.02200671 0.04832950 0.00007251 0.00007841 0.00026280
159 1 0.820481 3.840559 27.977763 0.05614986 0.00267418 0.03336756 -903.49887945 -364.93140097 530.82524514
160 1 19.833160 35.201489 16.537575 -0.02812168 -0.02244423 -0.01139184 -15.56523264 -15.70315719 -21.80575990
161 1 25.816425 14.514971 2.861598 -0.02128251 -0.00638682 -0.03599745 0.00002227 0.00006083 -0.00007364
162 1 34.796812 8.376704 7.416441 0.05009974 0.03025512 -0.03584261 0.00000488 0.00015115 -0.00018414
163 1 14.985091 31.732422 19.623740 0.01663008 0.00286551 0.06414960 -0.00010575 -0.00007366 0.00015185
164 1 14.231006 11.777439 25.701201 -0.03185444 0.05407679 -0.01341427 -0.00005567 -0.00008450 -0.00007690
165 1 22.318753 14.862523 10.085221 0.00025792 0.02688639 -0.00666539 -0.00017322 0.00012037 -0.00002829
166 1 16.051135 25.494652 25.234841 0.01634618 0.04521960 -0.06020518 0.00017108 0.00003700 -0.00011539
167 1 6.983845 28.927544 20.687221 0.02057889 0.01844411 -0.05356097 0.00004610 0.00007523 0.00005390
168 1 32.383099 15.901250 26.101908 -0.01250593 -0.00938023 0.03474969 -0.00003343 0.00008510 -0.00006870
169 1 9.477105 28.452980 3.370330 0.01155110 -0.02360812 -0.00264650 0.00002266 0.00049536 -0.00010501
170 1 21.201372 20.026017 15.277256 -0.01494435 -0.01547675 -0.02188271 0.00005843 0.00020607 -0.00014141
171 1 25.138310 7.913017 6.646878 0.02718946 -0.02816447 -0.00608249 0.00018308 -0.00000107 -0.00015138
172 1 33.990898 25.472171 17.461506 0.00483271 -0.00069748 0.00185151 -5.52276179 64.40051767 76.06650083
173 1 21.178516 17.792596 30.402189 -0.01717360 0.01315279 0.07525768 0.00005680 0.00008413 -0.00004622
174 1 10.920599 32.890472 10.607364 0.02263875 -0.06685561 0.01349392 -1733530.48329628 -3888323.23108370 2262021.00946828
175 1 18.658483 14.063061 30.143072 -0.03007480 0.01674533 -0.00390364 0.00001516 0.00007394 0.00002235
176 1 7.289934 28.785619 28.473012 -0.01792690 -0.03033059 0.00075229 0.00001686 -0.00005674 -0.00001549
177 1 4.265046 18.282662 15.064882 0.01252713 0.02337004 0.02667834 190399.15423998 363772.73433959 69356.39544602
178 1 20.301437 3.172107 18.922821 -0.05510388 -0.01064068 0.01350304 0.00001322 0.00072102 0.00038161
179 1 22.792532 15.283579 10.632316 0.06064570 0.01878416 0.01298480 -0.00007524 -0.00009855 -0.00007695
180 1 26.794675 0.205121 28.031347 0.03001773 0.04242408 -0.01891257 265088.42887504 214084.35778548 1879119.94294635
181 1 31.881752 23.348721 17.006140 -0.00927013 -0.03864832 0.00672457 0.00271853 0.00256011 0.00070529
182 1 26.423547 33.620199 22.171604 0.02259980 -0.00974925 0.00839589 0.00006982 0.00015013 0.00000215
183 1 18.887545 29.951819 11.436410 0.01052870 0.00886396 -0.02887561 -0.00040901 -0.00218079 0.00061911
184 1 5.274228 2.277568 23.660449 0.00728576 -0.00536216 -0.01829215 -9047.70223527 -3012.26923193 -2310.69237330
185 1 35.032426 11.357038 30.122359 0.05162577 0.01009194 0.05631644 0.00024948 0.00012179 -0.00013794
186 1 10.774960 4.545676 4.779899 0.01910852 0.01292425 0.02708693 0.00002750 -0.00010315 0.00005226
187 1 20.123225 8.396617 19.214667 -0.03394011 -0.03074039 -0.01790982 -0.00012678 0.00005423 0.00023015
188 1 21.283256 28.318168 30.790059 0.02340959 -0.05187092 0.00889161 -0.00083408 -0.00222453 -0.00057319
189 1 17.254888 1.496402 18.341238 0.01215662 0.02467548 0.02921980 -0.00129980 0.00133293 0.00089728
190 1 6.153168 1.378165 18.691603 -0.04889538 -0.00833050 0.00723986 0.00019216 0.00005627 -0.00033734
191 1 28.863556 18.221136 2.161373 -0.07751315 0.04412535 -0.00592567 -0.00006123 0.00008879 0.00016928
192 1 8.697684 26.326566 25.893645 0.03582699 -0.02903148 -0.03908563 -0.00004089 0.00001165 0.00003543
193 1 34.523216 11.739362 6.510577 0.01989093 -0.00922871 -0.02482431 61897.41863976 -45995.85462436 -16494.03012588
194 1 25.980644 13.350126 15.522682 0.02568989 0.00766753 0.01185468 0.00012958 0.00001899 -0.00000066
195 1 27.199294 6.339311 28.417835 0.00711901 0.03586073 0.01804841 0.00000300 -0.00007390 0.00000184
196 1 3.400554 31.181427 7.164272 -0.05056966 -0.01201288 0.03078719 -0.00000679 -0.00080817 -0.00197463
197 1 18.509323 3.884043 20.790526 -0.01902580 -0.00694761 0.01313336 801.57584901 1074.02349754 -1928.99575113
198 1 2.306738 17.487355 33.821996 -0.06334495 0.02196332 0.01037444 -3024358.79237357 8408243.26042500 783443.21939018
199 1 14.948944 7.587188 3.908361 -0.00786920 0.01878061 0.01620339 -39.86462184 -89.71733190 101.31225779
200 1 9.140538 30.032500 27.618752 0.00280953 -0.06911621 0.00221348 -0.00011249 -0.00010756 -0.00004117
201 1 14.481508 8.220935 29.595731 0.00735611 -0.03061820 0.04838422 0.00012758 -0.00002984 0.00001807
202 1 15.377587 34.639462 31.790894 -0.05740127 -0.00915496 0.00649675 -0.00004828 -0.00017730 -0.00002461
203 1 18.006596 8.880693 33.103932 0.02592106 -0.00204465 0.01205015 0.00023225 -0.00003079 -0.00004067
204 1 2.377941 8.409469 29.300183 0.00127222 0.05585043 -0.00990683 0.00008520 0.00041219 -0.00004237
205 1 0.704932 14.533547 27.136684 -0.02238357 0.03565511 0.01456661 0.00002332 0.00014769 0.00001855
206 1 8.679977 33.135403 33.464634 -0.03729372 0.01801950 -0.00333695 0.00003399 0.00013701 0.00003810
207 1 3.479245 32.160207 28.683246 -0.00946562 -0.02285792 -0.03313273 0.00005623 0.00015623 0.00007038
208 1 10.912522 28.983063 5.391766 0.03390540 0.02885822 -0.01400300 -0.00008667 0.00012964 0.00003636
209 1 9.706010 24.687571 23.607783 0.03085915 0.04688399 0.04355238 -0.00007787 -0.00004799 0.00006180
210 1 33.360466 20.812176 11.142904 0.00450442 -0.00038328 0.00526605 0.00005871 -0.00001588 -0.00000733
211 1 12.278132 15.474738 24.525489 0.01169027 0.02272323 0.01309090 -0.00029092 0.00010065 0.00008375
212 1 24.701975 2.815687 16.071734 -0.02454285 -0.00100636 0.00829338 0.00006168 0.00015508 -0.00000187
213 1 2.990573 34.834208 16.160971 -0.03241123 -0.08057168 0.06363447 0.00010755 -0.00015352 -0.00000747
214 1 8.801739 13.081428 16.965471 0.00116675 0.00592193 -0.03353300 -2125.17620434 -1048.69949553 -3956.57176481
215 1 0.616337 7.783373 7.405013 0.05151188 -0.02998618 0.00975274 0.00062688 -0.00063208 0.00029852
216 1 33.588179 22.902771 20.451504 -0.03562988 0.00523000 -0.00322445 -0.00009697 -0.00117232 0.00136348
217 1 33.213282 16.391822 7.683767 0.02748200 0.00561007 -0.00052885 3.34841046 4.08925248 0.03732521
218 1 5.101558 35.248591 33.755437 0.01170661 -0.01181604 0.00298214 0.00019632 -0.00016631 -0.00016522
219 1 22.758673 16.987518 19.256367 0.03252568 0.02894606 -0.02935959 0.00034454 -0.00002587 0.00004062
220 1 0.770496 26.963588 25.672935 0.02386591 0.01007453 -0.00396004 0.00007877 -0.00005634 -0.00009433
221 1 3.439489 9.374465 34.557458 -0.03086109 0.01805479 -0.02410231 0.00006168 -0.00002038 0.00010812
222 1 30.680435 11.796898 13.652299 0.03210628 -0.00241431 0.01217706 -0.00010543 0.00009418 0.00019789
223 1 25.464847 17.631977 18.956279 0.02376356 0.01906802 0.04929383 -0.00000394 -0.00006105 0.00004381
224 1 2.538949 33.074542 14.214882 -0.03792584 0.00000126 0.02672657 0.00002324 -0.00000644 -0.00011054
225 1 3.204943 4.417348 1.287137 -0.03983407 0.00174472 0.03351319 -176.43495079 311.24634257 -187.04013551
226 1 35.801617 3.845531 25.061611 -0.05698302 -0.01348829 -0.02092162 0.00071780 0.00000554 0.00300033
227 1 20.187720 23.251853 22.328702 0.00684407 0.03554307 -0.02507485 0.00006571 -0.00009835 -0.00008369
228 1 31.205212 19.110944 26.386368 0.03891031 0.06243582 0.03166049 -9310.62491955 14521.08344382 8534.02345446
229 1 14.846553 35.480559 7.017440 -0.01745929 0.04070870 -0.00994467 -0.00020810 -0.00014933 0.00021960
230 1 15.468120 4.942268 32.993729 0.03058343 -0.03077902 0.01966397 0.00007266 -0.00011779 0.00006335
231 1 3.465620 13.162348 1.845626 -0.00376130 -0.01710079 -0.02045228 0.00007847 -0.00019499 -0.00003692
232 1 15.748591 12.242922 14.682336 0.01882402 -0.03621075 -0.00459704 0.00014611 -0.00000487 -0.00025435
233 1 6.815713 6.200954 14.859572 0.00294529 0.01956663 0.00022470 0.00000119 -0.00021763 0.00015977
234 1 14.752867 24.466295 25.764238 0.03897007 -0.01978466 -0.00234672 0.00011127 0.00012124 -0.00007670
235 1 25.450821 27.191738 11.456856 0.00334485 0.03592526 0.01692787 0.00002524 0.00016759 0.00002172
236 1 13.221353 28.879983 22.345718 0.01648980 0.04913154 0.00262460 0.00004372 -0.00006363 0.00017568
237 1 20.064650 6.233851 5.615982 -0.03233058 0.00981730 -0.00394026 -20166087.38577056 -420801287.69548666 333015972.22928661
238 1 15.289528 13.320951 15.812515 -0.05568716 -0.00522290 -0.02872369 -0.00037189 -0.00062097 -0.00039373
239 1 2.991138 1.152873 35.420435 -0.01315878 0.05819317 0.01518832 0.00006051 -0.00210299 -0.00112636
240 1 34.376610 26.705049 18.437056 -0.01449408 0.04155122 0.03057795 -14.91747979 -47.68175663 -37.72936819
241 1 32.249954 23.713975 35.778933 0.00149621 0.01061074 0.02324745 -0.00003872 -0.00012131 -0.00021179
242 1 34.899591 2.219035 13.117901 0.01667168 0.04229520 0.02650508 -118429154.27619664 -680004894.31091726 594067530.06872559
243 1 19.745645 19.456574 12.820643 0.02088195 0.03726112 0.01553735 0.00007844 -0.00001335 0.00009796
244 1 12.628703 18.829493 12.066107 0.00899612 -0.03524825 -0.03952514 -0.00003656 0.00007382 0.00002392
245 1 24.698439 6.974663 34.622698 -0.02471828 0.01084309 -0.00139128 0.00016565 0.00000851 -0.00005436
246 1 28.748391 31.623174 7.160853 -0.01276517 0.03259616 -0.00318413 0.00001725 -0.00004975 0.00002050
247 1 11.078460 6.792079 14.197601 0.01138548 -0.03145137 0.00008032 0.00003417 -0.00013966 0.00009137
248 1 29.534812 22.295203 3.301806 0.00030478 -0.02455241 0.00756230 0.00015046 0.00002248 -0.00002200
249 1 32.833292 27.868088 7.216268 0.03616086 -0.03320470 0.00357966 -0.00011245 0.00002977 0.00006636
250 1 22.878017 1.492181 4.043945 0.07866117 0.00216512 0.03690623 0.00005072 -0.00009821 -0.00024958
251 1 3.781288 32.665922 34.975159 -0.04935313 0.04094495 -0.03424004 0.00016127 0.00014815 -0.00015638
252 1 0.991985 25.626461 34.720637 0.02415172 -0.01143069 -0.00721666 12.56625263 45.64378851 105.89505504
253 1 22.659838 7.900427 32.102562 0.02228022 0.00115751 0.03600435 0.00018221 -0.00004525 -0.00006670
254 1 30.513596 27.123850 5.983336 0.01294040 0.00403598 0.00166760 -0.00015002 -0.00013389 0.00004889
255 1 20.653036 1.735918 5.831947 -0.02322839 0.00482968 -0.00366399 -0.33685655 -0.83175700 0.99906345
256 1 9.121628 9.967387 13.563076 -0.01321793 -0.00400241 -0.03047883 -0.00206189 -0.00013072 -0.00235860
257 1 34.325153 16.383810 23.100615 0.01294677 0.02081604 -0.01200447 0.00009082 -0.00030996 -0.00016579
258 1 5.845148 17.686147 10.140923 0.03185897 -0.03100217 0.03051665 0.00060875 -0.00021708 0.00069464
259 1 22.379070 23.280386 12.772494 -0.01729441 0.03123246 -0.00361274 1524690.18612638 -2823871.54556293 1715010.73624216
260 1 30.606900 14.039453 35.792011 0.00794554 -0.00945480 -0.01112637 -4135.69772116 249.68827993 1201.03681878
261 1 8.148416 10.266640 16.907382 -0.00893474 -0.02534546 -0.00545685 0.00305739 0.01320077 0.00050073
262 1 13.588802 4.826828 28.302713 0.04878993 -0.03398767 0.03491011 0.00007354 -0.00001690 -0.00009854
263 1 25.059299 7.443831 17.702838 0.00418742 -0.00215320 -0.00492527 -126.88963770 -31.51539739 -62.54039036
264 1 2.031580 14.582064 4.151087 -0.01743206 -0.03999556 -0.00603347 0.00023107 -0.00032018 -0.00055210
265 1 12.030895 14.274403 26.713115 -0.05899969 0.00453196 0.03202960 1571971.42019021 421552.08023733 1169206.79465956
266 1 6.030490 6.653428 29.299534 0.03707171 0.01464723 0.01521045 0.00010501 0.00001051 0.00002375
267 1 30.648383 20.087088 27.306462 -0.00164995 -0.00719053 0.07217032 99.19480720 -173.89251431 -163.90741183
268 1 6.990958 2.824558 2.703926 -0.02845350 -0.04928897 -0.00507914 0.00075054 -0.00034955 0.00030919
269 1 12.350036 17.689440 7.748298 0.00682539 0.02304109 0.03651472 0.00007153 -0.00011007 0.00002180
270 1 33.496175 25.381367 2.340539 0.02607621 -0.03696653 0.03325146 -0.00047355 -0.00018004 0.00037666
271 1 4.848784 2.234272 31.153229 -0.03401789 0.00201404 0.00896093 0.00015697 -0.00021435 0.00008193
272 1 15.941949 34.980650 33.881340 -0.05377373 -0.03042339 -0.00274076 0.00022357 -0.00000328 0.00001181
273 1 19.105852 17.811531 24.835928 0.00202915 -0.06669502 0.00229194 0.00005501 0.00004273 -0.00001034
274 1 6.752438 17.093423 29.420109 0.02237274 -0.05982714 0.05510700 0.00005443 -0.00003753 0.00001155
275 1 7.101690 10.268160 1.690427 0.08037455 -0.01647129 -0.01619908 0.00011967 -0.00011233 -0.00022384
276 1 28.907153 2.160779 12.309154 0.06418573 0.02849391 0.00549115 -0.00017324 -0.00017141 0.00000351
277 1 9.732638 17.852722 24.542089 0.02724585 -0.00901215 -0.00768726 -0.00023453 0.00034554 -0.00024363
278 1 34.271337 34.457513 16.282215 -0.02255037 -0.00439874 -0.08539260 -0.00014937 -0.00040584 0.00039578
279 1 33.863357 33.091582 4.652883 -0.03174499 -0.01744735 -0.05162860 -0.00006158 -0.00098809 0.00026367
280 1 11.129717 9.408491 27.862961 -0.02122422 -0.05047284 0.04799962 -0.00009707 -0.00031336 0.00003838
281 1 30.653865 3.896165 32.207566 0.01462468 -0.02911934 0.02089672 0.00003148 0.00002759 0.00000595
282 1 7.415011 33.834278 3.340647 0.01890667 0.07905591 0.00099355 0.00021281 0.00027500 0.00024102
283 1 12.141805 20.371569 19.589753 0.01548532 -0.00344159 -0.05305005 -0.00009674 0.00010768 -0.00001437
284 1 32.216955 11.897553 4.311538 0.04532550 -0.03626122 -0.03082582 -0.00068911 -0.00014260 0.00017499