ITEM: TIMESTEP
0
ITEM: NUMBER OF ATOMS
3566
ITEM: BOX BOUNDS pp pp pp
0.0 36.766188
0.0 36.766188
0.0 36.766188
ITEM: ATOMS id type x y z vx vy vz fx fy fz
1 1 9.895814 1.322072 19.752961 -0.01686510 0.04874869 0.04267516 -0.00021273 0.00010034 0.00004318
2 1 26.584728 17.574968 31.962637 -0.00467888 0.05682953 0.01038972 0.00000805 -0.00010289 -0.00009559
3 1 20.295512 22.884119 21.623259 0.00044682 0.08585847 -0.05562832 -0.00009272 -0.00013401 -0.00010106
4 1 19.552407 30.525811 7.731300 -0.00128748 0.00873750 0.05394224 1124075.28807340 1634476.20750881 -1628146.36461905
5 1 32.765488 26.085158 10.873815 -0.05434053 -0.05478862 0.04219734 -0.00001384 -0.00000153 0.00002654
6 1 26.771751 4.033469 5.180086 0.06495010 0.02740328 -0.02198890 68888618.98690657 273045650.48311222 120780968.21163918
7 1 34.598785 15.326979 13.382102 -0.03030870 -0.04013528 0.01722109 0.00002412 -0.00002261 -0.00003202
8 1 2.379472 21.710366 32.255708 0.04474981 0.00764628 0.01266965 0.00009050 -0.00002563 0.00007802
9 1 19.700334 28.267962 15.969548 -0.01065862 -0.02229717 0.06682841 -0.00007652 -0.00011955 -0.00000885
10 1 29.214887 32.516746 15.146415 0.05273415 0.01545750 0.05250890 -0.00000112 -0.00000641 -0.00011774
11 1 8.480727 24.451916 5.323752 0.04690876 -0.02919885 -0.01709958 0.00018245 -0.00003698 0.00017507
12 1 10.295028 10.419027 17.052893 -0.04207654 -0.02825763 0.00841762 -913.99114650 312.76180052 -1149.94086439
13 1 12.857837 34.456189 0.571392 -0.01009162 -0.06279799 0.02295488 0.00012989 0.00002963 0.00010553
14 1 32.259054 3.074870 1.775320 0.00935750 0.05556634 0.05900608 0.00004333 -0.00010018 0.00007910
15 1 5.264410 34.268772 5.912623 0.02952839 0.01106439 0.03617785 -0.00001573 -0.00005056 -0.00002411
16 1 18.683605 15.390781 16.017963 0.02253201 0.01307960 -0.02700451 -0.00004566 0.00002904 0.00015804
17 1 17.200270 3.862591 5.852352 0.00980898 0.00160801 0.02794335 0.00005827 -0.00015321 0.00018817
18 1 10.514598 10.084380 5.168229 -0.03005498 0.04773192 -0.02268244 -4227.95573321 -6078.12156149 -87947.21453931
19 1 3.497890 29.252851 14.329585 0.03772489 0.03460199 -0.00803168 0.00001082 -0.00007051 0.00008495
20 1 26.027091 20.767092 16.925494 0.02930023 -0.01841926 -0.01803474 -0.00001819 -0.00006240 -0.00021450
21 1 36.519472 32.773048 27.329987 0.04562818 0.05306319 0.02845503 0.00001643 0.00010885 -0.00014680
22 1 35.093877 9.657486 0.162698 -0.01651764 -0.01802596 0.00173424 -0.00002699 -0.00004633 0.00006289
23 1 17.685492 16.240037 36.384731 -0.03190945 -0.03158077 0.03333644 12.68608859 -154.09479998 57.58925919
24 1 15.105428 7.555230 13.268702 -0.06039143 0.03230702 -0.00332099 0.00010404 -0.00001456 -0.00003977
25 1 27.708986 15.098301 22.263748 0.02087932 -0.02090055 0.02641557 0.00007099 -0.00002131 -0.00008519
26 1 36.008456 30.050962 27.963814 0.02684965 0.00269003 0.02824019 -0.00018713 0.00005159 -0.00001885
27 1 6.614847 20.233725 23.103303 0.01233466 -0.03058331 0.00398339 -0.00021224 -0.00008409 -0.00016244
28 1 28.566136 6.105103 25.600140 -0.01612123 -0.02636745 -0.06283775 0.00000649 0.00006191 -0.00014515
29 1 0.473260 33.148336 9.721082 -0.02974435 -0.01722270 0.01518024 -0.00003167 0.00011217 0.00011494
30 1 11.268297 27.862014 2.125960 0.03164632 0.00388374 0.01617940 -0.00010316 0.00005401 -0.00007775
31 1 34.388285 20.396850 14.895705 0.07232843 0.00401778 -0.04011855 0.00006019 0.00006115 0.00014564
32 1 14.600908 18.208365 21.331851 0.04927835 0.05004238 -0.03477616 -1367.84244358 1343.60956838 -964.10122803
33 1 18.624549 26.355631 17.896115 -0.03621891 0.00895612 -0.02135644 -0.00004908 0.00009642 0.00004085
34 1 18.848085 14.077635 9.801758 0.00789406 0.01260479 -0.04779948 74.14073425 -31.62402005 -149.59143936
35 1 5.389572 16.101051 4.537629 -0.00515616 0.00885321 -0.00899160 -0.00010966 0.00007966 -0.00022447
36 1 26.664375 15.136235 30.864588 -0.04495744 -0.02947800 -0.02094008 0.00016927 0.00004987 -0.00000085
37 1 4.859359 20.559657 16.215496 -0.00793770 0.00701769 -0.00127683 -0.00018475 -0.00002636 -0.00011717
38 1 22.543544 30.533432 27.208109 -0.04434237 0.01026164 -0.02913314 -0.00002572 -0.00010271 0.00014195
39 1 21.679538 14.699743 4.571242 -0.00082049 -0.01985706 0.04285278 0.00024442 -0.00005654 -0.00002982
40 1 22.098034 31.755686 6.508454 -0.00925269 -0.07162695 0.05357221 -0.00115434 -0.00054611 0.00063269
41 1 32.965053 34.904843 1.324840 0.02154340 0.01161904 -0.03428137 -0.00011595 0.00001812 0.00015462
42 1 17.392432 19.549015 30.468175 -0.01091833 0.04341967 -0.04199289 510387.56177100 38722598.99119892 -11262556.59708972
43 1 30.162330 9.013585 0.964239 0.02220482 -0.02406373 -0.01529851 -0.00009681 -0.00013871 -0.00010603
44 1 32.215968 32.111814 9.244052 0.01813538 -0.01128028 -0.01278827 0.00020970 0.00011281 -0.00005056
45 1 16.617782 9.363467 4.642014 0.00652227 -0.02550704 -0.06642509 0.00009104 -0.00001846 -0.00013448
46 1 21.684373 28.333975 36.468699 -0.02861682 -0.04653072 -0.06828206 -0.00003826 -0.00005820 -0.00005528
47 1 15.685167 19.443245 32.817509 -0.03422154 0.06410616 0.02419198 0.00696939 0.00066976 -0.01007320
48 1 1.949788 0.766829 33.483880 0.03040300 0.00558113 0.02744331 -0.00010292 -0.00005294 0.00011372
49 1 34.929708 1.976967 21.627122 -0.01910732 0.03015609 -0.06998856 -0.00002750 -0.00013681 -0.00004433
50 1 29.930651 27.462977 21.583335 0.03295740 0.01452227 -0.00359820 0.00003751 -0.00010160 -0.00002094
51 1 6.927394 9.761901 35.689419 -0.00206920 -0.00632185 -0.02024118 0.00007973 0.00005470 -0.00013102
52 1 1.001546 12.492763 29.419955 0.00156328 -0.01453200 -0.05402757 -0.00017634 -0.00013577 -0.00010984
53 1 32.592876 4.252373 14.920478 0.00692800 0.01418522 -0.00819340 0.00001186 -0.00002310 -0.00005181
54 1 29.096912 29.819250 35.000470 -0.05439734 0.01539499 0.01977412 -0.00004741 0.00004920 -0.00007361
55 1 27.318035 26.405525 15.662991 -0.06748340 -0.01215054 -0.02425845 -19.55134954 -71.73584944 37.37246961
56 1 13.825817 33.252819 11.046799 -0.03760241 -0.01354450 0.01475174 0.00011389 0.00005543 0.00008395
57 1 14.924260 24.918379 32.054956 0.01831956 0.05847440 0.01053319 -0.00006702 0.00023121 -0.00003861
58 1 23.938195 12.995086 7.920834 0.04361120 -0.10464310 0.05552107 0.00010315 -0.00004003 -0.00000039
59 1 36.567485 7.631427 16.788576 -0.06959759 -0.03106283 0.00722037 0.00001868 -0.00001578 0.00007162
60 1 2.734938 13.896936 22.040923 0.04533610 0.03443559 0.00202079 -0.00007991 0.00015502 0.00002892
61 1 22.870341 24.427735 0.719558 0.00477893 0.00355289 -0.01523480 -0.00004982 -0.00000839 -0.00003240
62 1 24.135855 14.404167 31.552622 0.04085480 0.04223534 0.03841966 0.00001120 0.00004277 0.00005797
63 1 4.749181 17.288478 3.301856 0.03341572 -0.00370421 0.00806683 0.00004758 -0.00008645 -0.00008230
64 1 36.498049 4.844581 15.650554 -0.03094256 -0.01172179 0.03320147 -0.00004981 -0.00001316 0.00004270
65 1 36.290566 10.444177 17.712532 0.01385466 0.00931257 0.04231274 834.54769609 -206.31840116 -1224.19098605
66 1 19.897869 29.515558 18.979093 0.02668950 -0.03314941 0.01626852 1684.68194731 3514.39462123 675.37563489
67 1 0.725453 16.531082 33.586404 0.00067724 -0.02072378 -0.04337262 -0.00004524 -0.00006494 0.00015844
68 1 3.430881 26.363258 17.712048 -0.03894071 -0.00402058 -0.09868065 -0.00013587 0.00008177 -0.00013459
69 1 34.349493 4.495366 28.162703 0.02190624 0.00735643 0.00627139 0.00000685 -0.00013182 0.00010453
70 1 2.266672 35.642561 22.017760 0.00077826 -0.01315116 -0.00182940 -0.00016762 0.00002501 0.00018180
71 1 16.142648 13.273768 8.750686 -0.01268991 0.01155221 -0.03336851 0.00399429 0.00126642 0.00159504
72 1 4.842085 34.370649 6.202172 -0.00856693 0.08980364 -0.02403287 -0.00008114 0.00011481 0.00009512
73 1 3.595582 18.128366 20.505687 -0.01638519 0.03398897 -0.01848063 -0.00003753 -0.00017955 0.00002021
74 1 10.372393 29.201015 0.992230 -0.00349814 -0.00748059 -0.00422547 10.97438859 -3.58852010 -4.36441139
75 1 18.708437 1.905791 18.027092 0.06163494 -0.02667001 0.01922940 -0.00010400 0.00002277 0.00014218
76 1 8.262443 7.547909 17.021889 0.04253413 0.01343707 -0.01088765 -0.00141981 -0.00201349 0.00009959
77 1 17.253876 33.578436 6.783200 -0.02905366 0.04098736 0.04038653 -0.00107233 0.00154850 -0.00052639
78 1 13.573105 12.507718 19.944141 -0.01918461 0.00090917 0.02138062 0.00044489 -0.00010952 0.00026628
79 1 33.429630 27.179382 15.626005 -0.05128642 0.00579477 -0.02897035 0.00001144 -0.00002214 -0.00001184
80 1 36.150233 14.417337 24.052098 -0.01916649 -0.04899389 -0.02157262 -237.31299422 16.50268613 -155.45106564
81 1 20.577020 20.137537 33.118880 -0.01892688 0.01768121 0.01909021 0.00083713 0.00037706 0.00059798
82 1 2.197824 2.694507 23.835341 -0.03150311 -0.02428201 -0.00454681 0.00006154 0.00012140 0.00000794
83 1 30.049950 4.132773 17.391386 0.03234567 0.01187573 -0.02108328 0.00012305 -0.00001771 0.00015280
84 1 8.830747 21.109960 14.842719 -0.01475246 -0.01722988 -0.03580756 0.00011026 -0.00010759 -0.00000028
85 1 30.845856 5.814723 21.933216 0.00626613 0.01008859 0.01750216 -0.00013932 -0.00012538 -0.00007488
86 1 15.351389 31.996203 32.560313 -0.04528434 -0.03087927 -0.03927269 0.00002951 0.00010946 -0.00006082
87 1 24.573580 28.138124 22.940468 -0.03094918 -0.01328278 0.02913091 0.00010461 -0.00016198 -0.00007558
88 1 10.066513 17.154567 12.297447 -0.03143714 0.01077802 0.03341364 0.00021584 -0.00002127 0.00007449
89 1 3.134402 19.813001 24.066076 0.00431049 -0.00952676 0.00640325 0.00014194 0.00018113 -0.00009352
90 1 14.891752 10.821651 14.311978 -0.02658742 -0.01401804 0.01353206 0.00019033 -0.00002095 -0.00019274
91 1 32.160106 25.412904 17.852868 -0.02607486 0.01353086 0.00988134 -202.92956151 -5.71510938 -77.23915830
92 1 1.277665 9.373181 26.276390 0.02081750 0.02811931 0.00519286 0.00008715 -0.00003374 0.00007325
93 1 29.169646 27.084801 28.570761 0.03922118 -0.00173372 0.04025984 -0.00006261 -0.00009525 0.00015045
94 1 32.953860 5.320377 24.285986 -0.00237060 -0.04274997 -0.02248379 1.02001298 3.64104787 -2.51529474
95 1 22.192200 0.377702 34.073029 0.02012718 0.03109717 0.01481882 0.00005025 -0.00000716 0.00005032
96 1 25.695838 18.771829 20.383163 -0.04087386 -0.04020171 -0.08186850 251.57070889 149.51469190 1394.89069573
97 1 6.133982 32.309331 4.016065 0.01468333 0.04089081 -0.04491990 -0.00009463 0.00011620 0.00001264
98 1 14.695844 8.443737 18.479233 0.02524679 -0.01047484 -0.01643478 0.00024701 -0.00016742 -0.00002042
99 1 25.929497 5.189564 30.691543 -0.02905552 0.00502612 -0.05162400 -0.00011255 0.00005489 -0.00001197
100 1 31.895681 24.334893 29.854323 0.06850322 0.01317224 -0.05684110 -6068.46327205 -6138.39234124 1493.89057362
101 1 13.788139 23.476223 25.004012 0.01153889 0.02524771 -0.00912049 -0.00004328 0.00013670 0.00004125
102 1 14.804200 7.544160 10.877584 0.01370071 -0.04077615 0.01332477 0.00008673 -0.00010570 0.00014097
103 1 11.074343 36.089800 22.627340 -0.00419021 0.06013801 -0.00515292 0.00005639 -0.00007711 -0.00012544
104 1 18.557416 21.617249 19.782163 0.07475087 -0.02942948 0.00912842 0.00023737 0.00017016 0.00012959
105 1 36.500673 25.798478 8.083980 -0.02399832 0.00774108 0.02583290 -0.00009074 0.00005815 -0.00015871
106 1 31.018965 17.823077 34.859680 0.01827521 0.03943067 0.02762468 0.00017063 0.00003207 -0.00009659
107 1 10.286616 28.498640 35.958320 0.07647569 -0.06309571 0.04814908 0.26461450 2.16576070 5.55068247
108 1 9.133184 6.735183 17.391466 -0.02913816 -0.01564380 -0.00185037 -0.00066071 -0.00181780 0.00025001
109 1 7.181391 33.946143 21.006955 0.00369918 -0.01465534 0.03622907 -0.00001277 0.00008904 -0.00008933
110 1 33.546004 26.919333 29.199243 0.09520517 0.00508443 -0.02160612 -0.00015169 0.00003769 0.00011386
111 1 13.963159 5.173592 34.060146 0.00165689 -0.01082577 0.03119877 -0.00004683 0.00005654 -0.00004759
112 1 14.438862 32.150684 24.033723 -0.01846077 -0.01334000 0.05289901 -34.92370996 27.76302182 -5.88360943
113 1 13.405959 3.120956 29.448944 -0.00083989 0.05982675 -0.00961239 -0.00005877 0.00013854 0.00004988
114 1 17.985515 18.495975 19.013729 0.05540354 0.01363937 0.02558914 0.00101479 0.00008007 -0.00074183
115 1 20.195635 31.630722 10.660507 -0.04269209 0.01319667 -0.00782858 0.00025509 0.00029410 0.00089615
116 1 32.653417 33.808753 15.709397 -0.02993005 -0.00312114 0.01285407 -80361.88545069 -4080.41148099 -27879.47434266
117 1 9.446757 5.842191 19.415877 0.00398521 -0.03799786 -0.00034440 -0.00001583 -0.00019806 0.00013106
118 1 5.015982 17.100040 28.623894 -0.01710261 -0.00814234 0.00751670 0.00008342 0.00001682 0.00008634
119 1 1.013489 8.661015 11.598493 0.01335354 0.00856033 0.03301635 0.00004413 0.00002316 -0.00002970
120 1 20.653642 35.686806 5.509942 -0.01656173 -0.04153250 -0.02809623 -0.00002207 -0.00002226 -0.00004262
121 1 19.189229 1.121064 29.061134 -0.00072384 0.01966936 0.01423129 -0.00004702 -0.00003153 0.00019178
122 1 34.175059 1.791676 29.758285 -0.01198956 -0.01797571 -0.00561394 0.00023398 -0.00005873 -0.00005595
123 1 5.398964 34.849613 5.909763 0.00957820 0.01046406 -0.02370543 -0.00003323 -0.00007875 -0.00014043
124 1 21.137625 22.916877 18.904756 -0.03471449 0.01098140 0.01442513 -0.00027565 -0.00005934 0.00014035
125 1 0.226852 14.792692 30.513732 0.00632094 0.00156249 0.01426359 0.00009766 -0.00022403 0.00001156
126 1 22.128773 29.061380 3.911504 0.02296042 -0.04245729 0.03475919 0.00041801 0.00000789 -0.00042357
127 1 18.759476 2.913580 7.256171 0.01796402 0.03841044 0.02539640 -0.00001118 -0.00007400 0.00006148
128 1 7.700556 35.842072 22.274076 0.00858401 -0.03192932 -0.03270766 0.00000721 -0.00003976 0.00009519
129 1 26.766837 1.988408 9.166174 0.00580109 -0.02763906 -0.03305290 0.00024871 -0.00032529 0.00076451
130 1 30.132195 34.083762 20.192634 0.01682750 0.01380980 0.02796919 -0.00034027 0.00000924 0.00013366
131 1 23.376490 18.764098 34.108165 0.02066566 -0.01165103 0.02137525 0.00004368 0.00009053 0.00001549
132 1 32.993459 20.270109 28.308920 -0.00357774 -0.00830269 -0.06860475 0.00022672 -0.00065462 -0.00022443
133 1 10.982773 2.193753 0.820437 -0.03308002 -0.02849854 -0.01474344 -89481.47299256 251846.74054560 149249.03401348
134 1 0.651126 25.871125 10.820693 -0.01418566 -0.02858857 -0.03728176 -0.00014905 0.00001297 0.00000810
135 1 1.876943 24.949757 17.254236 0.00031386 -0.01667720 -0.00653517 0.00004078 0.00015256 -0.00007700
136 1 17.599905 13.878986 4.588065 0.00519769 -0.05450677 0.02784636 -0.00009605 -0.00013361 0.00002777
137 1 1.875830 8.533217 21.253850 0.00324504 -0.01264109 -0.00119438 0.00022025 -0.00040702 0.00033272
138 1 31.208243 7.823150 27.768304 0.02126108 0.01495478 0.00919468 -0.00009358 0.00025652 0.00057092
139 1 13.308750 4.023401 36.120253 0.00802779 0.00343977 -0.02204916 0.00157002 0.00112143 -0.00097242
140 1 32.945247 26.257176 28.433583 0.02861297 -0.04676576 0.04037073 -0.03450095 -0.06322439 0.04664552
141 1 15.033834 27.309285 28.542538 -0.02565250 -0.00496108 0.03920332 -0.00000002 0.00001992 -0.00011040
142 1 1.026924 7.700245 9.922993 0.00801837 0.01480964 0.00110874 -0.00007855 -0.00006600 0.00018823
143 1 2.308330 31.975435 21.724533 -0.01428194 -0.02071231 -0.01099255 0.00002584 -0.00013592 -0.00002475
144 1 34.185367 36.004658 1.993815 0.00310432 0.03050972 -0.08488214 -304679.03488260 -574044.41330449 -56038.05861529
145 1 22.453172 35.214440 5.915073 0.01542790 0.03154297 0.02356561 0.00011457 0.00009348 -0.00001811
146 1 4.011222 6.748671 16.719263 -0.09200444 0.04584287 0.03560172 0.00017018 -0.00015926 -0.00002300
147 1 11.789317 31.342953 17.044186 -0.01987960 -0.01169227 0.00261050 0.00004805 0.00002271 0.00010357
148 1 19.584596 21.113909 13.497105 0.02710261 0.08091957 0.01998988 482821.72952216 -133054.90129431 -512355.97997261
149 1 20.421950 16.413276 7.122317 0.02692376 -0.00976488 -0.01054903 0.00067368 0.00090249 -0.00128121
150 1 2.781752 30.093461 17.542357 -0.00258579 0.06080925 -0.02722921 -0.00001555 -0.00020233 0.00017290
151 1 33.797199 13.726894 5.359414 -0.02680772 -0.03519730 0.00651492 -0.00007197 -0.00002826 0.00020071
152 1 9.010412 24.647101 8.231286 -0.07411339 -0.00180753 -0.00121978 -0.00007438 0.00000413 0.00009546
153 1 16.108882 23.087503 1.938007 -0.04275935 -0.01670281 0.04532682 -0.00000373 -0.00000871 0.00006371
154 1 23.442121 7.931033 20.014486 -0.02816793 -0.05851318 -0.05550793 0.00001228 0.00014134 0.00004057
155 1 15.838879 32.408305 10.233252 0.10966088 -0.00531503 0.01386871 -0.00016788 0.00021706 0.00034433
156 1 11.296410 7.777561 17.879454 -0.01054319 -0.04345922 -0.00356677 -0.00271672 0.00776133 -0.00238062
157 1 0.295883 12.495332 13.551947 0.03418750 0.00400942 -0.02918228 0.00011974 0.00017806 -0.00072005
158 1 14.152503 18.058496 2.641997 0.01297056 -0.00908230 -0.02225786 -0.00022774 0.00024655 0.00025991
159 1 5.570901 12.874485 34.282206 0.02741593 0.01880754 -0.00197810 0.00011531 -0.00023437 -0.00004775
160 1 24.498536 1.702500 31.962008 0.00575025 -0.01086522 -0.00310969 0.00008321 0.00006357 -0.00009624
161 1 1.127906 27.488292 7.345516 0.03985803 0.03557938 0.07747257 -0.00009217 -0.00015572 -0.00001328
162 1 0.007125 1.788186 31.494408 0.02634110 0.00467968 -0.06428456 -0.00003510 -0.00005866 0.00000646
163 1 10.025561 22.787235 32.768762 -0.06078946 -0.00050415 0.01434744 0.00006783 0.00006450 -0.00005320
164 1 6.596619 15.778620 15.748255 -0.01470884 -0.06036960 0.04327180 -0.00004836 0.00001795 -0.00004594
165 1 14.391957 27.448841 29.715660 -0.02785637 -0.03653204 0.06634645 -0.00002290 -0.00005690 0.00002485
166 1 14.655276 21.876656 24.427019 -0.02491927 0.03199700 -0.04757322 0.00002180 0.00039759 0.00041540
167 1 5.471927 31.343866 3.905265 -0.00397910 0.03657281 0.01004555 -0.00017773 0.00011382 0.00003032
168 1 11.377933 35.678130 29.468733 -0.06390746 0.03354347 -0.02264416 -0.00017053 -0.00001649 0.00008432
169 1 32.288557 29.857849 21.910934 -0.03368106 0.00319456 0.00538701 0.00002371 0.00015945 0.00012395
170 1 26.844523 4.265043 17.085594 0.03111480 0.03666540 0.00305672 -0.00006935 0.00008704 -0.00018777
171 1 4.908762 13.180619 28.339281 -0.06042752 -0.04547918 0.01498068 0.00000172 -0.00002800 0.00022357
172 1 12.884961 17.271567 10.579807 0.02355754 -0.02346444 0.02136545 -0.00005611 -0.00005335 0.00001472
173 1 12.128432 36.158290 7.354684 -0.02130604 -0.01316088 -0.03311294 0.00024624 -0.00000357 0.00008843
174 1 24.507688 34.627617 23.465602 0.01918015 -0.01343570 0.02687065 -0.00004483 -0.00009868 0.00010789
175 1 7.937528 8.784684 31.468937 -0.00909470 0.01310348 0.00195365 0.00003404 -0.00016064 -0.00008086
176 1 31.425049 12.182507 22.423789 0.02787655 0.02788053 -0.01551091 -0.00024249 -0.00005711 -0.00016109
177 1 13.232152 12.327769 5.350937 0.04226984 -0.03414115 0.04649530 384913.66950926 -133300.09302007 495918.42138314
178 1 30.886739 22.106952 21.503480 0.06677420 0.03436398 -0.04455255 -0.00016949 -0.00036928 0.00019865
179 1 31.865031 0.650361 31.146594 -0.00965172 -0.00311367 -0.01492877 -0.00011676 0.00004484 -0.00012449
180 1 36.136029 16.369546 23.619746 0.04020666 -0.04144186 -0.01887335 0.02708025 -3.73147436 0.82645700
181 1 23.052632 30.209742 30.657787 -0.01156794 -0.06180072 -0.04485227 -0.00011277 -0.00014772 -0.00004349
182 1 34.792029 19.235219 34.195008 -0.02586806 0.03879323 0.02657508 0.00000341 -0.00021457 0.00018112
183 1 22.275902 0.411910 27.203801 -0.02968195 -0.05104258 0.04219787 -0.00004161 0.00005529 0.00010435
184 1 8.647765 25.522615 4.132482 0.02726652 0.06650081 -0.01597204 5.56155129 -13.74594188 -29.00148249
185 1 6.361833 24.355395 11.383993 0.02145846 0.01994132 0.01243361 0.00005654 0.00017603 0.00007630
186 1 19.327306 34.631246 11.045583 -0.03507382 -0.04609163 0.00996837 -0.00007810 0.00031310 0.00029264
187 1 2.810423 16.572070 10.388331 -0.00862497 0.03599845 -0.02515330 0.00006526 0.00003246 0.00020407
188 1 5.598623 4.415456 17.777658 -0.01448459 0.02877545 0.00364760 0.00002711 0.00010990 -0.00000138
189 1 24.976601 3.859449 29.126829 -0.06292022 0.02091340 -0.00412291 -0.00006342 -0.00006670 -0.00018592
190 1 27.788774 21.051454 25.801425 -0.04315691 0.08163571 0.01497935 0.00001524 0.00005551 0.00007663
191 1 2.207968 13.162121 4.588737 -0.01322681 -0.00420689 0.02724303 -0.00010385 0.00005254 -0.00001209
192 1 24.850599 5.473546 12.191805 0.08320331 0.00984653 -0.04005220 0.00005446 0.00010453 -0.00005814
193 1 36.034620 1.528044 26.017319 0.02683231 -0.07000544 0.00234401 0.00016037 -0.00018643 0.00017165
194 1 15.865946 36.073136 26.979259 0.03594221 -0.06803101 0.02128464 0.00019577 0.00018411 0.00018599
195 1 7.892965 31.987584 26.605654 0.01395888 0.00135372 -0.00292229 -0.00006408 -0.00011039 0.00004979
196 1 19.111285 26.267910 15.069437 0.01967118 -0.00455187 -0.02439544 0.00009620 0.00004162 -0.00018578
197 1 34.997901 20.410323 16.941930 -0.00235612 0.02432605 0.04511224 -174411805.85973978 -288068886.71823895 311685417.98723125
198 1 0.122938 25.571213 16.260502 0.03919205 -0.04792831 -0.01974786 0.00070117 0.00022395 -0.00019736
199 1 27.763116 20.778702 1.320451 0.04029444 0.03638211 -0.01386055 -0.00000453 0.00007708 -0.00000900
200 1 24.242799 11.821426 23.261286 -0.01814597 -0.01080571 -0.00256626 0.00004313 0.00005176 0.00024861
201 1 36.173502 29.238491 20.099424 0.05308628 -0.00161291 -0.00010249 0.00007361 0.00015233 0.00015322
202 1 18.370847 23.025516 21.134311 0.01971101 -0.05234959 0.07332345 0.00013941 0.00014870 -0.00012063
203 1 15.905281 6.527561 20.728859 -0.00160129 0.06564467 -0.00550420 -8453743.17336593 5133365.18236610 249976.65557295
204 1 7.267050 22.646303 16.394063 -0.01207645 -0.02406734 -0.00200899 -0.00006735 0.00003637 0.00001999
205 1 36.670407 6.516310 29.028329 -0.02706963 0.00896967 0.02990673 0.00002013 0.00009140 0.00011228
206 1 21.572200 28.394768 18.149656 0.02515980 0.00697942 -0.02906775 -0.91558960 0.61285078 0.45354372
207 1 0.917108 32.023338 15.229588 -0.05303630 0.02297141 0.02471699 0.00023727 -0.00020014 0.00015930
208 1 1.850832 22.010563 30.095341 -0.06700300 0.03299259 0.02593522 0.00001401 -0.00003837 -0.00010775
209 1 32.953688 18.788805 23.194218 0.01742194 -0.04292770 0.04480469 -0.00022490 0.00014243 -0.00000204
210 1 28.465975 36.531239 36.494613 -0.02235701 -0.00012540 0.04485964 0.00019419 -0.00008298 -0.00020804
211 1 17.282963 18.445944 10.453524 0.00150600 0.03532802 -0.03929839 -0.00055172 -0.00004409 -0.00037408
212 1 12.988706 9.997879 32.078788 0.00933009 -0.02902883 0.00297771 -0.00003414 -0.00010099 0.00000613
213 1 19.869773 17.743079 36.566050 0.03038600 -0.04483814 -0.06038964 -0.05289288 -0.03645295 -0.00422608
214 1 1.852532 13.442942 4.377417 0.05678856 -0.03033635 0.02311928 -0.00003758 -0.00013335 0.00017689
215 1 36.637875 1.853325 4.551737 0.04289795 0.10806996 0.00353316 0.00054263 0.00040846 0.00036902
216 1 34.808919 23.195019 24.490340 0.00510633 -0.02770045 0.03261989 -0.00009286 0.00004381 -0.00005831
217 1 32.759734 2.425656 0.594332 -0.04056999 -0.03036417 -0.04867894 -0.00080787 0.00171134 -0.00104653
218 1 19.759706 9.810295 6.027596 -0.00974920 -0.05678266 0.01248955 0.00001913 -0.00007528 -0.00015911
219 1 14.045231 6.806792 1.516070 -0.01453186 -0.03981011 0.02179361 0.00022845 -0.00003602 -0.00009739
220 1 20.063576 10.817650 13.546808 -0.05220859 -0.03215304 -0.01025413 -0.00007750 -0.00019557 0.00018084
221 1 8.394075 5.708295 21.315619 -0.00910883 0.03120486 0.02382950 -0.00013782 0.00005446 0.00017971
222 1 20.423765 34.033209 26.908877 0.00168639 0.03748858 -0.04459121 -2531.11698984 -2718.02917538 1887.22817056
223 1 12.146787 30.241158 1.631793 0.01324981 0.06704951 -0.02745350 -1.14957712 -0.67397647 -0.41441504
224 1 0.100562 8.533618 32.273732 0.01074591 0.03413138 0.02032006 -0.00015308 -0.00013827 0.00000546
225 1 34.991514 23.266706 2.197282 0.00702041 0.03801411 0.02924893 0.00019669 -0.00011059 0.00005980
226 1 6.673443 31.648844 14.495552 0.06111289 0.00851100 -0.01064726 -0.00004007 0.00000966 0.00001848
227 1 25.403254 17.005418 35.539166 -0.02789034 0.00262553 -0.03297490 0.00001172 -0.00011964 0.00003866
228 1 2.570543 2.576366 32.987580 -0.00278406 0.06058070 -0.01746621 -0.00007156 0.00021845 0.00006026
229 1 17.254082 24.708204 33.130350 0.01192417 -0.01457867 0.00012139 0.00004098 0.00003320 -0.00010066
230 1 3.470845 0.359514 9.717950 -0.04422975 -0.00678621 -0.07459607 0.00010342 -0.00006570 0.00020885
231 1 6.198905 34.534881 20.493005 -0.01311364 -0.00267518 0.00705436 0.00007505 -0.00012773 0.00009502
232 1 21.538858 28.774985 18.832469 0.01570537 0.01047789 -0.03209413 -13.43690843 6.06400640 1.20080658
233 1 30.334945 5.376515 5.002214 0.00403738 0.03835817 0.00002723 0.00176741 0.00056776 -0.00002967
234 1 27.649433 34.921137 13.850288 -0.03847491 0.00282732 0.03977226 -0.00028417 0.00006693 -0.00002365
235 1 10.543539 32.959579 2.873590 0.02802623 0.02472579 0.03342145 -0.00005659 0.00098341 0.00059597
236 1 18.482029 10.713943 4.880750 0.00838931 0.02379516 -0.00164936 0.00002175 -0.00021287 -0.00010697
237 1 29.597388 20.046283 20.825104 0.00598454 -0.08075862 -0.02559851 0.00123857 0.00037751 0.00014875
238 1 14.327368 1.994572 35.779285 -0.00760015 -0.02197756 0.00724037 0.00167576 0.00000160 -0.00101236
239 1 0.248658 12.913285 26.248978 -0.04327431 -0.00480894 -0.02523015 -0.00799653 0.01395124 -0.02043747
240 1 21.000394 1.403994 18.957081 -0.00345743 -0.04764892 0.06150966 0.00001443 -0.00006492 -0.00006884
241 1 25.267675 20.627009 8.949486 0.03192964 0.04006734 0.00635833 0.00007123 -0.00007034 0.00000021
242 1 17.647598 34.390959 33.216082 -0.00789242 0.01493501 -0.02065342 31170.57192904 -61414.49569096 -41023.07958147
243 1 8.457079 33.176724 1.224107 0.01670831 0.03161360 -0.01232576 -0.00043477 0.00066764 0.00014618
244 1 5.374956 10.677124 9.360616 -0.01237607 -0.09040775 0.03389038 82.70483687 15.68832264 27.99325817
245 1 29.589443 21.612887 19.575951 -0.00932822 0.06616675 -0.00785302 -0.00002387 -0.00020524 0.00017861
246 1 23.036832 25.856798 34.777676 0.04648339 -0.02877644 -0.01063635 0.00001917 -0.00010511 0.00012903
247 1 33.763643 4.245575 12.798902 0.00378129 0.00574318 -0.01514946 0.00003162 -0.00002853 -0.00000331
248 1 33.984550 3.816255 4.956845 -0.01066791 -0.04986344 0.04915703 0.00001332 0.00009146 0.00001805
249 1 28.771372 3.920720 18.796133 0.01991212 -0.00207553 0.02090372 0.00000492 -0.00001268 -0.00025147
250 1 32.902529 8.502274 2.534508 -0.01890360 0.01600341 -0.02059655 0.00000125 0.00008560 0.00010362
251 1 28.157165 29.866216 14.436313 -0.01290313 -0.00998300 -0.00339601 -49123.68135119 23968.20460417 39466.57456627
252 1 24.134250 26.606321 3.058610 0.02119437 -0.03897736 -0.04643093 0.00015524 -0.00016591 -0.00006504
253 1 7.484685 29.175158 0.378745 0.00813057 0.00196953 -0.05704252 0.00791097 0.00013612 0.00154790
254 1 30.854285 18.851190 33.394988 0.01846698 -0.04094793 0.01065555 0.04320283 0.09254877 -0.61572512
255 1 36.370602 13.359822 18.747809 -0.00114557 0.01173498 -0.01682139 -0.00002505 -0.00120749 -0.00047785
256 1 14.998476 29.741393 7.352463 -0.00607843 0.00631379 0.01015321 -0.00059443 -0.00013462 -0.00017255
257 1 10.668881 17.670182 15.758892 -0.04006606 -0.02656598 -0.02631615 0.00003169 0.00013659 -0.00005472
258 1 29.073430 27.247063 32.450431 0.04616346 0.00031738 -0.00970249 -0.00025721 0.00031025 0.00016011
259 1 8.317971 20.788703 11.252203 -0.01899108 -0.00888808 -0.01857849 0.00000779 -0.00010615 0.00000574
260 1 16.513008 6.307800 27.155700 0.00353362 0.06288204 -0.06016998 -0.00009350 0.00012776 0.00007840
261 1 29.964140 7.060817 35.612123 0.05854197 0.02624011 0.08315572 0.00014735 -0.00000958 0.00002285
262 1 12.337596 18.475248 23.897799 -0.00003841 -0.00017375 -0.02192250 559.36127460 1420.07179087 1355.34373946
263 1 20.557253 21.735515 30.448980 0.00849347 -0.00196233 -0.02069352 0.00150741 0.00125373 -0.00003514
264 1 1.130301 3.174677 10.499106 0.02217775 0.01106673 0.02858325 0.00009241 0.00005450 -0.00002517
265 1 20.359308 0.645555 22.237847 0.03569100 -0.03642630 0.00794325 -0.00006540 0.00004382 -0.00050450
266 1 6.943071 6.217770 5.377398 0.03317847 -0.01569838 -0.02415904 -0.00015410 -0.00026729 0.00002390
267 1 15.398033 30.390728 5.093135 0.00063628 0.01285135 -0.05823095 -0.00016824 -0.00006403 -0.00016884
268 1 9.112568 12.497642 26.678465 -0.01958089 -0.08073154 -0.00598936 -2.95646735 -25.96349377 -15.23449151
269 1 24.060362 35.031935 3.212274 -0.00243743 0.04130374 0.00954992 0.00013121 -0.00021367 0.00002673
270 1 8.162645 18.409056 17.110513 -0.03627341 -0.02037489 0.04181298 -0.00007168 0.00004733 -0.00002825
271 1 11.517507 5.450211 8.328975 -0.03159968 0.02201759 -0.00715690 0.00010709 0.00000127 0.00024951
272 1 26.479759 31.253601 23.127401 0.00581639 -0.00567015 0.02432474 -0.00007093 0.00007485 -0.00019801
273 1 1.357381 19.227173 30.085619 -0.00222839 -0.02007965 0.00357402 0.00006109 -0.00002351 -0.00002115
274 1 0.868784 16.135104 31.010743 0.00800031 0.03912927 0.03908355 -0.00000226 -0.00004386 -0.00001701
275 1 15.602839 13.508910 28.269752 -0.06008262 0.01240582 0.00564018 2101.34014368 267.12970278 -320.69998926
276 1 1.053557 27.226832 17.138213 0.07327305 -0.01983302 -0.05682719 0.00003298 -0.00002514 -0.00005238
277 1 22.397140 9.485029 0.465474 0.01179537 0.08749303 -0.01252860 0.00010685 0.00003727 -0.00005139
278 1 26.885666 35.242170 25.259897 -0.02668531 0.00577363 0.04188476 0.00025046 0.00009719 -0.00007022
279 1 13.158755 3.727138 4.109948 -0.05850676 -0.01825190 0.01282871 60856.45589563 -48315.32697302 -331302.52132179
280 1 35.050410 21.957805 20.920019 -0.02643137 -0.03118085 -0.01526423 -21.34274445 93.91949586 36.65433768
281 1 27.417887 14.582522 2.974614 0.01003351 -0.01960764 -0.04501456 0.00014277 -0.00006326 0.00009523
282 1 34.968417 30.450337 14.191077 0.04909383 -0.00463787 0.03806873 0.00058754 -0.00073822 -0.00036282
283 1 13.845376 34.288184 5.851832 0.05457744 0.08549402 0.07410142 0.00000884 -0.00002756 0.00001564
284 1 16.844553 21.412004 1.807181 -0.01235498 0.01376539 -0.03979120 -0.00008154 -0.00004421 0.00000962