LAMMPS data file for silica system 21

2078 atoms
2 atom types

0.0 31.396334 xlo xhi
0.0 31.396334 ylo yhi
0.0 31.396334 zlo zhi

Masses

1 28.0855  # Si
2 15.9994  # O

Atoms  # atomic

1 1 6.665410 24.602219 3.388207
2 1 13.281095 19.098372 17.719860
3 1 21.757976 18.038042 16.196780
4 1 30.654220 19.637810 18.096736
5 1 23.547361 17.299314 9.832472
6 1 8.278213 26.101722 14.349356
7 1 7.364753 6.640814 27.239435
8 1 29.136517 24.180635 7.176563
9 1 29.166176 12.590357 15.347731
10 1 20.476703 11.439194 13.320959
11 1 10.258573 8.404854 8.503400
12 1 24.747419 25.998076 19.456028
13 1 16.800168 24.504429 0.044884
14 1 21.532603 11.345969 22.200261
15 1 5.841480 29.756218 20.376845
16 1 13.984977 14.656495 19.804508
17 1 16.719918 9.428482 12.890998
18 1 24.392019 0.131905 11.106704
19 1 28.944215 8.512332 0.627694
20 1 21.131912 22.084311 21.072790
21 1 7.019843 10.887722 22.662997
22 1 13.999656 19.334960 25.734672
23 1 25.290478 0.578308 27.849243
24 1 20.567505 7.648070 23.154740
25 1 28.113755 3.659986 3.827295
26 1 4.947193 30.282153 9.883724
27 1 27.484263 19.919432 25.940047
28 1 18.716788 29.767399 19.090325
29 1 14.039212 8.558813 25.679103
30 1 13.523641 14.606773 8.274625
31 1 23.359977 4.713540 4.651493
32 1 18.478528 3.788468 10.323766
33 1 20.949834 15.204691 3.132252
34 1 18.142962 13.965278 13.593762
35 1 15.816640 23.996000 17.945827
36 1 1.947840 29.571835 27.638093
37 1 6.383948 23.755219 1.186668
38 1 26.126331 8.294276 18.649206
39 1 26.477923 22.833137 8.303043
40 1 29.976632 17.952489 25.345765
41 1 8.071754 25.370683 7.120102
42 1 0.208927 22.866048 22.243404
43 1 22.226883 2.647064 14.121811
44 1 17.734432 5.076379 15.729062
45 1 23.856479 13.005985 0.068111
46 1 7.567016 30.541040 28.965608
47 1 23.546832 20.760702 10.378128
48 1 11.300137 9.979200 21.013901
49 1 8.545690 16.211792 27.734395
50 1 4.796391 20.874699 9.510879
51 1 28.318767 4.278265 15.228541
52 1 11.857931 11.112043 22.328197
53 1 0.167874 6.173303 26.439661
54 1 3.418035 15.298571 26.860248
55 1 6.697263 27.790630 11.904596
56 1 15.148208 24.200599 9.450336
57 1 25.151229 16.449983 8.228084
58 1 6.468280 1.608047 4.167230
59 1 7.971353 18.332789 14.593147
60 1 18.897975 19.128994 4.309335
61 1 22.313190 3.126782 17.312874
62 1 1.592700 28.868634 12.174289
63 1 13.206193 22.266981 27.399588
64 1 25.887828 17.026413 14.045795
65 1 17.754931 12.360651 13.521337
66 1 7.934828 10.140498 19.432390
67 1 25.722520 24.581779 26.405672
68 1 8.099634 12.533842 25.616015
69 1 24.848612 27.888539 7.976915
70 1 3.805626 23.869687 18.840422
71 1 8.702992 25.997231 0.140400
72 1 29.473462 1.576074 12.654447
73 1 23.213148 19.117203 1.602476
74 1 27.432283 5.941387 14.820116
75 1 26.093901 8.572524 21.794401
76 1 18.974560 29.783712 0.219627
77 1 29.729587 30.364222 8.594952
78 1 23.238579 17.761447 18.540841
79 1 28.078603 13.595132 26.842070
80 1 20.324930 3.456694 12.590725
81 1 26.154058 19.254857 14.519681
82 1 10.207514 21.753110 26.481380
83 1 13.845195 6.265098 18.333416
84 1 25.783586 24.258401 1.940796
85 1 30.579053 19.344743 12.533577
86 1 20.012074 14.669340 29.154057
87 1 16.882134 26.904470 30.652620
88 1 0.531976 16.974395 12.660467
89 1 0.937445 24.185021 29.763024
90 1 23.732254 13.187683 22.883545
91 1 11.972513 13.794998 0.444533
92 1 19.396969 29.913510 2.000657
93 1 6.639002 12.415464 4.509987
94 1 28.337212 3.342307 5.458533
95 1 10.164409 27.711037 3.599410
96 1 4.712446 9.636427 1.761741
97 1 25.804497 14.639447 3.324039
98 1 17.266507 8.573131 23.139694
99 1 28.931848 6.911236 14.238991
100 1 26.548588 28.026097 2.418581
101 1 23.928108 19.877987 18.687158
102 1 12.420586 29.405143 16.887151
103 1 31.302312 7.249601 21.602411
104 1 3.301505 29.434713 9.437958
105 1 16.747046 2.619552 26.499057
106 1 29.493290 14.754055 0.913055
107 1 15.345293 4.948526 11.956181
108 1 13.424513 6.293147 18.795253
109 1 26.077736 1.823878 11.991017
110 1 20.736098 6.992882 14.539826
111 1 26.920711 12.101433 18.844614
112 1 9.692864 6.215549 8.330583
113 1 18.566327 23.766233 10.804832
114 1 23.919548 29.847494 7.358332
115 1 0.283737 11.991331 30.764779
116 1 27.612140 21.057546 15.616665
117 1 25.021397 24.925096 7.693151
118 1 5.201016 19.430248 15.644851
119 1 25.231441 11.151418 19.279252
120 1 28.912880 18.793380 3.858388
121 1 21.835714 5.892064 11.830799
122 1 22.114752 27.273730 13.235582
123 1 0.846215 18.622426 20.583900
124 1 23.855882 12.140107 4.216953
125 1 24.224248 15.070097 17.768669
126 1 6.312238 26.282832 20.733043
127 1 6.290270 22.369533 13.388155
128 1 16.512509 24.577448 28.473524
129 1 28.184445 18.077519 19.938579
130 1 7.298609 10.999274 8.469478
131 1 2.349225 21.497373 4.794480
132 1 0.553020 20.857687 9.651337
133 1 19.894430 2.247499 16.384875
134 1 0.462557 1.632277 30.285068
135 1 31.295692 17.942145 5.929201
136 1 12.789137 24.772345 13.747410
137 1 10.767121 26.330142 30.284966
138 1 7.391045 30.442104 27.167172
139 1 0.791783 1.163326 24.534800
140 1 24.801435 21.897617 7.262310
141 1 29.368598 7.201455 22.067599
142 1 28.443548 1.595977 27.699828
143 1 23.889414 9.274239 6.628549
144 1 8.734282 7.048981 30.116168
145 1 12.503211 12.995070 11.380656
146 1 9.728896 21.045494 3.834391
147 1 15.583165 14.612902 7.271447
148 1 10.256094 0.277084 12.681081
149 1 5.443093 11.041987 31.228127
150 1 13.188822 20.200757 17.283477
151 1 8.806943 6.779112 14.469413
152 1 31.196034 19.565451 15.957839
153 1 19.816747 8.000643 23.359657
154 1 7.906948 12.156183 17.857393
155 1 16.803033 11.008795 9.613488
156 1 26.200062 19.303273 8.405165
157 1 23.697339 9.726076 27.207961
158 1 2.318845 27.694674 6.765648
159 1 11.359420 19.191688 17.545419
160 1 0.666704 22.410430 18.254892
161 1 9.157030 11.212054 0.726625
162 1 5.620267 1.743937 23.043319
163 1 23.810124 10.511533 18.961647
164 1 21.811847 27.379902 24.960135
165 1 6.564806 29.269482 21.578803
166 1 17.556686 5.992813 4.071424
167 1 29.832962 24.503408 15.217233
168 1 0.729217 26.380245 14.456345
169 1 3.287465 24.012234 2.164917
170 1 3.102480 23.282360 5.598638
171 1 5.820980 28.982507 9.691065
172 1 1.407716 13.175221 2.211171
173 1 17.500981 1.503627 26.999156
174 1 4.632218 24.423099 28.940812
175 1 0.319241 4.461308 16.886249
176 1 0.210944 0.024115 24.534767
177 1 20.601364 24.380343 12.335171
178 1 26.560582 20.289197 14.186791
179 1 5.292765 18.525428 10.723889
180 1 10.701655 2.426483 24.772147
181 1 23.513184 28.569322 5.149823
182 1 6.300378 30.451685 25.865933
183 1 9.758366 25.082560 12.913261
184 1 30.190468 14.180816 31.272307
185 1 6.753513 9.702604 25.348356
186 1 28.656304 21.366125 25.736117
187 1 28.907519 17.624222 12.237449
188 1 29.720680 5.452674 15.062091
189 1 21.889037 11.345864 28.329561
190 1 25.505452 4.166710 1.339928
191 1 23.064110 26.016755 6.782074
192 1 18.045284 8.668215 21.711796
193 1 13.764730 29.642997 2.767132
194 1 14.923186 13.591076 26.367804
195 1 30.547570 22.798591 9.440121
196 1 3.340473 3.064341 14.170420
197 1 15.567936 1.882622 26.964840
198 1 24.039978 6.267931 25.654889
199 1 7.643543 11.604248 10.171218
200 1 1.830819 0.604675 7.061203
201 1 23.623786 7.947852 7.262550
202 1 16.189925 6.796517 26.663269
203 1 28.387688 17.881836 11.277802
204 1 15.363660 10.297242 14.528920
205 1 13.633030 5.022361 17.654974
206 1 0.731224 0.904287 20.218551
207 1 9.926594 19.661574 19.198785
208 1 20.706398 1.106250 30.638289
209 1 25.670752 28.217071 9.647340
210 1 30.215154 5.121445 28.301892
211 1 27.536482 23.653939 23.023298
212 1 18.223495 16.127184 5.730061
213 1 25.065382 14.887018 6.569020
214 1 24.756525 23.830293 24.847328
215 1 27.258995 20.172475 9.852272
216 1 23.762498 18.634521 11.038760
217 1 7.405995 21.869716 19.548855
218 1 23.458731 21.970894 23.222106
219 1 27.342998 1.363668 6.711151
220 1 9.239989 10.734002 2.617602
221 1 13.351890 3.532797 10.051641
222 1 23.371618 13.073238 7.351437
223 1 16.443991 4.384984 14.980152
224 1 16.748161 3.484149 9.358594
225 1 0.581907 22.183090 26.660948
226 1 7.638266 9.382771 29.600500
227 1 6.612855 30.680627 4.137384
228 1 6.568192 16.829480 25.168832
229 1 25.933421 17.248308 17.148939
230 1 16.433028 15.787033 17.375455
231 1 12.554280 6.470940 21.081083
232 1 4.995193 12.771239 27.920605
233 1 14.469737 18.945464 1.411331
234 1 14.304486 12.876321 7.439831
235 1 19.063037 8.123784 21.441746
236 1 18.928290 22.562864 25.511926
237 1 25.159987 27.566390 27.848860
238 1 5.018922 1.169642 13.482841
239 1 12.561079 28.339320 17.857529
240 1 14.134095 8.943861 21.297228
241 1 5.331156 6.629727 8.763629
242 1 12.668514 7.881684 6.040395
243 1 27.054127 19.278528 16.694963
244 1 28.848502 23.485670 9.090738
245 1 26.720291 11.629874 20.000097
246 1 0.738120 11.534730 24.892711
247 1 28.659161 14.648560 12.151857
248 1 8.943282 31.114014 17.865742
249 1 1.814457 14.257133 5.392389
250 1 14.236443 9.526844 20.410623
251 1 8.177471 11.079212 20.896882
252 1 7.676526 17.017096 6.280722
253 1 21.514289 5.720407 17.991308
254 1 25.222807 24.095554 10.957514
255 1 21.252778 0.457419 4.961277
256 1 30.487326 27.622548 19.191784
257 1 2.212840 5.941374 19.144276
258 1 30.808148 16.378366 14.374766
259 1 12.238183 3.258722 25.440213
260 1 21.198749 10.064631 17.160575
261 1 16.060752 29.359882 3.251810
262 1 18.814678 24.581038 20.653355
263 1 21.595698 5.812176 19.357665
264 1 20.146142 4.917679 14.920763
265 1 2.261857 3.530627 29.056028
266 1 3.481327 3.136875 11.191767
267 1 23.025603 29.269673 16.719075
268 1 25.864813 6.204704 10.287158
269 1 29.581960 14.403356 13.144119
270 1 28.112770 17.408815 14.088198
271 1 0.604991 1.637103 3.399914
272 1 2.688238 27.432151 26.533556
273 1 19.651367 16.959251 24.074208
274 1 27.319191 29.911259 29.962202
275 1 24.873951 3.447279 0.489444
276 1 26.088831 11.724392 25.764088
277 1 14.116214 10.707988 19.859173
278 1 8.234462 31.326088 6.202848
279 1 29.012956 10.010927 8.523979
280 1 18.707288 23.423902 28.461933
281 1 14.138975 0.083869 6.355665
282 1 16.144951 21.973852 28.292244
283 1 12.015946 0.863636 3.753150
284 1 30.929111 23.345532 1.943151
285 1 12.666826 7.497372 8.636981
286 1 11.785772 25.200289 13.644638
287 1 23.390098 26.067139 27.862194
288 1 23.079233 14.269902 30.493609
289 1 3.710075 3.860001 6.825890
290 1 2.754066 26.158405 22.731422
291 1 13.106456 18.089147 5.287330
292 1 24.840788 25.891340 25.817509
293 1 27.527472 23.843482 2.147185
294 1 22.530546 12.460653 8.407813
295 1 29.350412 30.884752 15.636729
296 1 16.301991 2.747216 23.784734
297 1 30.816506 8.454590 11.419731
298 1 27.618876 11.641086 11.327582
299 1 13.035888 29.423498 31.234304
300 1 8.920663 15.377373 14.895328
301 1 28.822895 11.599846 22.446753
302 1 0.883215 10.107466 1.297799
303 1 10.957006 26.833177 14.557853
304 1 8.084176 21.938927 13.666841
305 1 1.225002 13.813281 16.015828
306 1 30.430964 13.797972 4.571845
307 1 0.502325 10.879501 4.021896
308 1 16.021475 7.658969 8.735804
309 1 4.071387 5.660664 11.530982
310 1 19.739598 27.320494 23.054385
311 1 18.788269 2.202748 23.616215
312 1 19.484495 0.337877 14.826412
313 1 21.412565 22.099968 27.117489
314 1 15.154982 24.609997 22.888901
315 1 29.432159 7.368219 12.007887
316 1 23.084394 9.236040 27.795408
317 1 30.809734 4.373173 30.092079
318 1 2.222604 24.565117 30.234515
319 1 19.274242 26.181800 10.475311
320 1 1.233404 18.244991 21.790739
321 1 0.742520 5.400677 23.654618
322 1 29.531821 0.011486 6.050697
323 1 0.340875 24.644690 5.271880
324 1 29.661013 1.231117 2.996331
325 1 0.756221 27.248751 20.560246
326 1 29.905789 23.369880 29.366594
327 1 16.145644 6.081471 10.785457
328 1 5.412441 14.394022 14.463051
329 1 6.245809 15.959328 22.539360
330 1 17.036083 19.646037 7.824390
331 1 23.620275 0.305098 0.861601
332 1 7.942820 3.775368 24.392921
333 1 0.860448 4.452868 30.092369
334 1 24.771403 31.190618 28.189832
335 1 11.923988 12.040292 18.680800
336 1 16.570080 22.744324 29.684119
337 1 5.095248 31.333531 17.664102
338 1 21.360076 14.529842 22.531816
339 1 28.194050 31.044914 25.985890
340 1 6.693513 12.807933 15.310127
341 1 13.841335 3.938095 26.559099
342 1 4.977473 11.416692 21.782199
343 1 26.906978 7.360133 14.998935
344 1 12.447243 28.458017 24.527988
345 1 26.723322 14.476614 15.294424
346 1 8.304512 12.476174 7.799803
347 1 9.815844 27.053972 6.594110
348 1 3.613645 25.533237 16.652633
349 1 8.636784 0.364378 8.358250
350 1 27.962393 29.209024 7.831446
351 1 7.826185 3.196567 2.631867
352 1 13.722628 29.400388 28.466998
353 1 17.329292 25.942830 19.069458
354 1 12.111268 9.305472 12.817010
355 1 23.790389 0.271802 15.269330
356 1 2.383357 18.872734 6.619962
357 1 28.541827 23.479908 18.482442
358 1 15.675130 18.332114 9.914001
359 1 10.915861 1.065432 22.738112
360 1 2.956255 19.673575 15.880454
361 1 16.153353 8.798815 23.322259
362 1 15.968707 20.078520 25.063482
363 1 18.772277 13.039642 22.614991
364 1 11.702309 3.176908 20.624625
365 1 1.759351 8.187889 27.854290
366 1 12.015717 17.067264 8.648911
367 1 25.249498 9.282873 3.804591
368 1 19.345636 12.542411 29.176271
369 1 28.027226 15.963996 15.358315
370 1 29.066330 26.302590 21.803798
371 1 17.290958 10.722794 21.545833
372 1 12.526564 4.343873 4.023998
373 1 12.369226 3.787459 24.189223
374 1 27.827215 14.495041 24.949978
375 1 3.097133 2.582877 1.909715
376 1 9.508865 29.488283 7.151280
377 1 7.400073 13.223203 8.848921
378 1 18.924659 7.637442 3.684309
379 1 12.919253 11.938319 5.906767
380 1 28.887085 23.518411 18.234809
381 1 25.458549 8.124494 4.492758
382 1 30.775574 22.057382 9.060576
383 1 0.735509 23.546121 28.982559
384 1 16.468329 8.565016 22.899244
385 1 17.037723 27.283460 10.157793
386 1 6.549425 30.590722 5.491900
387 1 25.876791 9.210662 21.286345
388 1 23.218655 11.273083 4.750834
389 1 1.453820 4.822647 14.267846
390 1 21.846553 8.752645 5.005921
391 1 21.832714 22.057451 24.293375
392 1 28.891927 10.344400 5.733572
393 1 26.080283 4.318937 21.728082
394 1 17.987005 4.753832 0.445825
395 1 18.561738 1.845444 23.234533
396 1 20.604105 10.361587 12.063357
397 1 27.187081 15.639233 15.002240
398 1 12.111198 4.255435 4.087865
399 1 1.178068 19.549843 26.941046
400 1 0.332953 24.722142 3.281080
401 1 0.615860 22.551233 16.608371
402 1 20.350884 23.268226 26.226123
403 1 3.956885 6.585305 29.630524
404 1 29.424695 2.833377 5.307763
405 1 20.527798 16.054386 0.607215
406 1 1.833272 6.852080 13.010434
407 1 4.612381 3.368801 25.974673
408 1 11.392441 26.213236 26.371642
409 1 23.513685 1.959145 3.860197
410 1 23.832839 26.910488 19.346567
411 1 8.234933 11.792597 10.597429
412 1 25.092367 6.085910 4.097110
413 1 23.440595 19.623682 14.419246
414 1 0.850913 21.799888 30.721752
415 1 15.537342 14.293525 24.056198
416 1 19.413032 14.131448 27.667155
417 1 14.293034 14.438735 0.223048
418 1 30.754625 26.123122 1.909931
419 1 10.482196 18.400636 19.102035
420 1 20.773647 24.089346 15.137636
421 1 3.254826 29.130377 25.794376
422 1 9.353159 21.502567 7.280853
423 1 12.155685 23.716624 14.610085
424 1 10.947811 21.428965 7.120040
425 1 21.226736 14.259124 15.951519
426 1 26.811587 10.796793 2.057582
427 1 19.995357 29.987346 23.396778
428 1 11.647583 22.294314 29.371328
429 1 28.393858 10.472914 28.993901
430 1 7.259336 0.647578 0.749401
431 1 7.095880 19.420263 2.767003
432 1 25.595601 11.574928 17.228775
433 1 26.044144 30.088847 1.038406
434 1 30.416324 24.301880 12.963232
435 1 7.786428 30.653435 30.361882
436 1 3.013495 17.139539 19.849814
437 1 6.996474 7.423887 1.444612
438 1 15.597501 16.953155 20.685487
439 1 31.322817 28.569471 18.473417
440 1 8.402157 29.713604 18.718777
441 1 26.904256 15.322189 1.681534
442 1 28.074328 24.368048 14.484411
443 1 16.361779 5.558574 28.230391
444 1 8.455322 13.125372 27.287542
445 1 8.353223 11.998355 11.706825
446 1 23.183233 4.766784 1.385005
447 1 10.859990 21.469683 30.601685
448 1 31.300595 23.077504 31.329440
449 1 7.143124 13.188794 25.147989
450 1 8.276576 5.873642 13.246992
451 1 28.862871 1.271080 25.199002
452 1 22.651965 28.369646 19.342253
453 1 4.919529 25.882160 20.807360
454 1 25.769351 19.974089 11.443086
455 1 20.532672 16.460092 16.962171
456 1 12.393091 20.981291 20.360975
457 1 29.986010 4.751131 2.849256
458 1 30.380124 25.926971 24.963127
459 1 20.328944 14.467561 4.941628
460 1 10.574863 13.525424 15.418921
461 1 29.477902 18.348709 14.078375
462 1 18.736195 8.897264 2.397839
463 1 16.702718 19.442327 5.035880
464 1 6.985712 10.371054 13.222768
465 1 22.429217 10.713266 3.792056
466 1 7.487339 9.216833 12.414300
467 1 16.643252 4.780414 3.253976
468 1 14.113431 24.184637 1.394078
469 1 9.084142 21.759137 4.035498
470 1 0.846506 17.823551 21.911393
471 1 14.399621 10.181527 6.365322
472 1 5.546835 29.593683 1.907432
473 1 11.636054 27.514005 6.583553
474 1 21.315000 0.315695 7.666733
475 1 21.492410 11.535666 30.213628
476 1 0.191956 20.218160 23.363464
477 1 28.130725 17.978577 22.738462
478 1 0.556253 13.014048 12.159595
479 1 14.037622 16.232902 19.056796
480 1 27.514990 23.623447 22.907192
481 1 20.393198 18.503480 1.740291
482 1 27.464760 27.824035 13.619484
483 1 27.194400 1.132487 11.425996
484 1 27.498241 29.943601 8.380842
485 1 16.826701 21.839814 11.831642
486 1 20.087080 3.436386 16.215391
487 1 3.972288 3.673508 7.046800
488 1 29.032877 29.487789 21.646339
489 1 4.005090 11.233989 3.772132
490 1 9.433490 27.446076 4.629694
491 1 23.020115 7.584483 3.173298
492 1 6.880533 20.854669 31.031800
493 1 5.499591 16.866671 6.672227
494 1 29.608891 17.126138 7.204339
495 1 12.176941 15.901096 28.849938
496 1 1.490686 19.341229 10.995289
497 1 21.309539 1.849676 21.494680
498 1 28.862719 11.075696 24.136024
499 1 13.453256 29.128828 25.436226
500 1 30.552668 12.029114 25.598146
501 1 25.106987 27.725433 23.726233
502 1 27.813290 2.596632 23.317918
503 1 4.261716 29.900716 7.926164
504 1 8.187819 25.602201 25.010364
505 1 2.872662 2.247351 17.205250
506 1 12.556870 23.491812 14.471366
507 1 21.483298 17.944792 23.444757
508 1 28.151757 18.936534 6.444943
509 1 1.812428 14.163056 0.194064
510 1 19.115370 1.969611 24.518235
511 1 21.926290 21.378395 23.578887
512 1 30.549221 29.400613 20.837374
513 1 16.026648 22.548682 26.516290
514 1 12.213283 0.312965 13.141614
515 1 16.315686 2.755629 4.667001
516 1 30.123861 22.040013 1.858231
517 1 26.079696 16.297808 23.619890
518 1 6.963259 18.106727 6.474568
519 1 11.587368 22.481209 9.061249
520 1 10.066474 8.864371 16.905744
521 1 31.380662 1.930445 13.260454
522 1 12.429958 22.930626 11.856740
523 1 24.286511 17.610355 1.246176
524 1 1.170529 2.939126 25.439799
525 1 29.062942 22.526328 25.567688
526 1 28.238231 1.054005 28.664485
527 1 18.426992 7.204786 10.504079
528 1 13.857467 2.648004 17.878129
529 1 14.191676 22.617908 26.462174
530 1 28.485677 6.243985 17.472771
531 1 5.044109 23.965554 11.089264
532 1 3.677465 19.982015 18.201139
533 1 20.081909 27.134125 30.577588
534 1 0.655402 20.577218 1.635809
535 1 0.613579 3.456418 22.291331
536 1 23.316529 26.014224 18.541690
537 1 3.177696 6.681669 15.924014
538 1 6.106477 9.079064 17.395378
539 1 19.847279 21.669987 14.820958
540 1 16.168912 1.894557 13.798590
541 1 23.330796 22.703303 14.285366
542 1 17.506345 15.007426 0.712344
543 1 15.247098 26.367472 8.516085
544 1 7.648209 1.048482 12.425846
545 1 13.991286 1.373852 15.040770
546 1 5.700101 9.506645 30.209897
547 1 19.928974 1.531014 17.081060
548 1 24.916838 9.303192 14.140743
549 1 27.828258 14.568965 25.352043
550 1 1.156638 27.672900 17.011567
551 1 0.541642 10.263125 11.249586
552 1 15.792072 31.112517 29.690517
553 1 5.564033 25.244997 27.663073
554 1 9.490936 3.268448 1.014823
555 1 0.273137 13.849835 5.151344
556 1 17.542664 24.592646 11.339558
557 1 6.100216 21.287196 22.117611
558 1 27.478751 25.877875 18.543679
559 1 10.752943 22.598507 24.302243
560 1 30.943007 22.712888 28.332345
561 1 7.301995 12.644494 23.244703
562 1 19.836597 26.961620 8.157901
563 1 24.178580 23.516648 18.600851
564 1 20.635489 24.867697 30.043435
565 1 10.976731 5.733622 27.690899
566 1 30.769360 24.250562 22.882185
567 1 20.545607 9.931017 18.583990
568 1 8.358454 23.217157 0.742055
569 1 3.776584 26.149950 1.180253
570 1 25.135689 0.451904 18.537989
571 1 4.210440 12.232129 3.543802
572 1 19.704707 21.291270 4.103800
573 1 28.163749 26.033287 2.310722
574 1 0.607227 3.416435 13.735547
575 1 9.418881 8.042207 30.670841
576 1 21.275984 1.253005 17.467268
577 1 1.149868 28.166776 27.447601
578 1 8.023200 1.440861 21.009775
579 1 18.309650 21.752318 26.798505
580 1 19.102622 29.259637 19.803998
581 1 1.809312 25.871869 23.041801
582 1 28.090951 12.626468 2.960216
583 1 13.496687 2.616024 25.242176
584 1 30.828748 2.647224 20.575174
585 1 20.544909 26.075633 30.008149
586 1 1.508740 4.354199 17.268308
587 1 23.924035 22.117420 4.781082
588 1 15.030935 16.354517 6.134591
589 1 30.553251 28.200611 19.765125
590 1 22.347855 16.821729 27.115703
591 1 21.715211 18.557876 21.630677
592 1 22.132355 29.624440 13.909348
593 1 7.216341 15.565220 27.040775
594 1 19.593627 9.819323 12.573709
595 1 3.074294 30.622732 18.199119
596 1 18.364191 2.786339 12.725908
597 1 22.162902 7.656142 20.176385
598 1 13.772874 8.090361 25.984082
599 1 17.191748 21.573500 15.283083
600 1 31.158386 6.547137 22.415136
601 1 17.811077 20.580383 7.748284
602 1 31.294147 9.395203 11.755989
603 1 3.151253 5.154173 16.391670
604 1 24.173349 20.044344 22.970331
605 1 20.576004 13.918610 28.844993
606 1 23.288482 17.673557 10.871623
607 1 30.373424 5.503981 8.743121
608 1 29.141736 10.260349 20.961661
609 1 20.991913 16.623751 2.515227
610 1 22.910856 5.652975 16.105279
611 1 12.846057 29.891786 28.296855
612 1 17.204524 15.214983 29.232013
613 1 21.545689 20.523902 24.938161
614 1 17.799720 25.372648 8.713584
615 1 11.378599 1.006411 2.814775
616 1 30.702011 25.411700 17.309409
617 1 10.166804 6.493339 28.013079
618 1 8.051326 29.958359 10.990900
619 1 23.312698 3.250076 6.258306
620 1 23.599503 22.092839 14.196553
621 1 18.985222 4.649633 7.749604
622 1 21.104224 2.289945 22.018784
623 1 1.949041 12.790290 20.840683
624 1 15.606742 26.659543 18.891983
625 1 27.497921 23.392701 7.629638
626 1 24.028939 30.981419 28.337806
627 1 9.828531 1.484002 12.849323
628 1 11.560730 19.498144 23.734703
629 1 25.378911 22.064995 1.013516
630 1 20.083170 11.927863 17.180232
631 1 24.117745 2.347661 22.568000
632 1 21.155733 28.082778 5.391403
633 1 8.852432 26.798793 18.096094
634 1 26.886866 22.088997 30.759288
635 1 0.787248 11.441701 20.881835
636 1 9.337916 9.110197 5.407964
637 1 26.409029 18.521920 27.534958
638 1 0.828586 23.860148 18.394216
639 1 20.200644 19.748728 20.078263
640 1 9.399694 1.276470 14.041272
641 1 22.914022 19.417999 17.723450
642 1 28.611866 17.386094 6.727590
643 1 26.279329 18.750660 19.779155
644 1 23.195778 2.307879 13.237732
645 1 2.916646 6.075565 17.601892
646 1 30.656651 16.643983 7.064346
647 1 25.618010 4.166577 23.565069
648 1 31.141128 27.713984 5.837170
649 1 25.174087 25.067998 0.905182
650 1 4.587197 8.446159 26.459259
651 1 14.832128 13.994563 31.377197
652 1 23.944510 29.648612 5.648200
653 1 15.301184 18.176950 4.638472
654 1 22.572681 27.699768 15.231655
655 1 30.141688 18.324339 7.430667
656 1 29.647099 30.919413 11.947230
657 1 8.606395 24.449648 16.210019
658 1 12.053568 28.256469 18.169162
659 1 24.080742 24.781991 3.300328
660 1 22.033599 16.373576 16.352995
661 1 3.560990 23.777176 19.027065
662 1 4.382174 11.471580 0.769038
663 1 11.286054 19.694212 12.694711
664 1 7.139852 12.627663 28.600669
665 1 13.458274 21.103556 19.170596
666 1 27.498038 5.208260 6.356406
667 1 0.662067 7.448605 20.587502
668 1 21.978425 26.997702 0.804877
669 1 5.457717 31.199418 2.174304
670 1 3.128980 3.372343 11.277359
671 1 26.530482 5.944050 23.464775
672 1 30.985927 20.262443 11.308171
673 1 26.631548 4.022545 25.419446
674 1 4.506703 2.133986 25.750659
675 1 27.979429 17.770950 20.330775
676 1 12.685115 17.922946 29.902181
677 1 22.073592 2.459635 30.497766
678 1 16.590293 3.097531 8.059898
679 1 6.387231 24.657370 17.613934
680 1 29.426777 3.854903 26.870013
681 1 18.212377 4.225887 25.302597
682 1 3.163854 5.864296 25.346264
683 1 16.166471 11.532838 30.720834
684 1 4.607365 1.023554 11.231040
685 1 10.717872 17.649130 0.237693
686 1 9.646998 22.851362 14.766217
687 1 29.587110 30.301664 24.829364
688 1 6.631026 6.203200 3.278068
689 1 26.935757 10.520189 16.639394
690 1 24.893244 26.362336 12.044233
691 1 25.155526 24.579934 6.021126
692 1 16.076137 11.550040 14.445177
693 2 29.818546 9.419538 24.672950
694 2 26.138123 7.695434 2.032054
695 2 22.863345 7.175025 18.593250
696 2 21.716064 22.176213 20.864244
697 2 17.270479 23.526819 22.626668
698 2 8.433992 7.971140 22.774863
699 2 1.164980 1.385150 24.223222
700 2 15.916358 24.969117 24.473880
701 2 6.502197 27.725993 23.091810
702 2 28.059742 12.461614 14.667054
703 2 23.497416 6.108408 31.305838
704 2 12.591302 15.635512 24.396763
705 2 1.039532 1.740896 13.904083
706 2 16.406728 11.168655 7.225997
707 2 20.623358 5.960017 13.574062
708 2 15.310907 8.004101 14.360349
709 2 11.525398 13.100639 29.069828
710 2 1.109490 17.737926 18.390673
711 2 29.337572 13.793750 24.882744
712 2 28.597617 20.832619 21.687914
713 2 22.367538 5.441088 22.226721
714 2 29.393893 19.068019 0.297531
715 2 10.677160 3.110387 2.350761
716 2 27.638741 21.477555 14.366613
717 2 0.290773 3.428648 13.114952
718 2 23.573036 2.038796 29.904505
719 2 27.692063 10.164987 27.707132
720 2 24.646384 5.831569 27.057506
721 2 30.167140 7.877517 12.413427
722 2 21.178029 3.983473 16.041664
723 2 19.185198 10.084399 13.956324
724 2 16.373882 20.330860 22.427319
725 2 30.682234 24.537936 18.043689
726 2 20.151976 15.436663 26.900044
727 2 12.348282 19.840000 13.175012
728 2 2.268148 25.870577 24.771712
729 2 4.762736 16.608269 15.388716
730 2 27.755020 25.250273 18.488533
731 2 13.800397 0.252760 3.548157
732 2 10.166497 3.579911 18.936435
733 2 23.751988 27.379435 24.001898
734 2 3.510442 23.863823 17.556397
735 2 29.270375 30.892169 9.677291
736 2 27.768615 21.331247 4.449916
737 2 20.409340 20.091617 28.479367
738 2 22.382304 27.490092 10.229700
739 2 29.763718 7.017260 2.043483
740 2 14.878211 12.512790 6.140047
741 2 11.962685 25.875624 7.716804
742 2 15.833365 12.866911 26.095137
743 2 8.204985 28.104264 10.717119
744 2 0.612462 11.071999 18.797244
745 2 24.089413 28.068894 27.363093
746 2 5.054580 16.160263 10.377941
747 2 31.288482 12.278467 25.330785
748 2 15.674498 0.366535 11.417281
749 2 19.774558 2.381206 30.926494
750 2 19.321617 20.807659 6.742193
751 2 14.261068 19.202845 4.409829
752 2 16.887140 17.534645 0.138987
753 2 1.849243 15.067980 18.391459
754 2 13.421518 8.355735 15.899939
755 2 28.021101 12.683958 25.058902
756 2 27.199116 6.707565 14.936776
757 2 5.529636 30.369450 0.918250
758 2 8.214185 7.686304 27.792950
759 2 29.492438 5.837758 23.787098
760 2 6.539613 7.860188 20.510584
761 2 30.630465 6.768124 31.273939
762 2 16.376471 21.780731 23.587726
763 2 14.991691 14.238692 15.472741
764 2 1.809652 12.390256 4.247182
765 2 8.487468 28.324470 16.181862
766 2 28.534272 9.478244 20.236793
767 2 20.879394 24.870142 12.966839
768 2 16.256967 10.358146 25.523953
769 2 16.996555 24.254837 0.181490
770 2 26.717559 22.891984 28.309617
771 2 27.721298 16.183600 17.305472
772 2 23.743756 8.117380 24.633897
773 2 18.587950 29.769359 27.786232
774 2 19.897182 20.155445 28.746907
775 2 26.130793 16.784776 27.754769
776 2 14.640105 15.853032 21.618376
777 2 15.333167 7.298912 3.124024
778 2 14.007212 29.964141 2.463365
779 2 14.312236 23.151180 28.736146
780 2 10.827468 11.784750 13.478750
781 2 31.191784 4.423909 2.562908
782 2 6.720116 2.287199 6.886866
783 2 12.670809 20.410276 17.355065
784 2 6.700034 21.284941 5.670663
785 2 30.226199 4.746830 25.692291
786 2 24.982830 13.392243 26.449030
787 2 2.717217 6.020223 30.999003
788 2 6.007419 23.891360 12.543343
789 2 11.434822 3.186417 17.879724
790 2 16.353268 30.176207 7.686501
791 2 3.493335 9.604790 0.064808
792 2 28.526411 25.841361 4.573495
793 2 3.612593 23.823513 20.883308
794 2 26.930887 8.778378 27.721272
795 2 6.462166 11.699585 16.942713
796 2 12.569905 21.655029 0.415737
797 2 1.995139 27.422752 19.498655
798 2 11.905263 3.505626 18.155267
799 2 10.559495 28.250477 26.681593
800 2 14.871094 10.689715 23.734541
801 2 15.442251 15.270981 25.055756
802 2 27.841497 22.875611 20.135498
803 2 23.063179 1.916732 21.423859
804 2 4.317156 16.446595 8.708015
805 2 4.683793 24.666772 20.537947
806 2 31.078692 7.634155 8.573680
807 2 28.869832 21.743728 17.051751
808 2 27.322833 20.299324 29.243395
809 2 19.694314 10.819251 21.482492
810 2 18.174489 4.716428 16.151361
811 2 20.647914 7.499271 31.069321
812 2 27.827983 27.187319 21.295267
813 2 21.666693 10.113057 30.879394
814 2 4.238487 29.214309 24.118893
815 2 24.402599 20.273155 7.130389
816 2 0.462651 15.825848 16.788064
817 2 9.443820 15.640873 2.101531
818 2 26.888454 0.173016 3.067778
819 2 9.244160 0.759310 27.080191
820 2 2.336161 1.789253 5.090794
821 2 5.746224 14.893802 27.433721
822 2 22.841022 25.115591 8.066320
823 2 11.486032 18.649062 19.191121
824 2 14.454110 11.308075 8.475093
825 2 23.970202 5.607184 19.723556
826 2 16.378177 17.606172 16.243989
827 2 22.265305 22.703293 25.634937
828 2 2.169740 27.893644 2.765084
829 2 9.367580 22.107733 8.436190
830 2 18.961756 13.806786 14.843594
831 2 26.318676 28.903938 0.540699
832 2 6.343536 17.234857 7.696076
833 2 10.346458 14.533608 1.078889
834 2 18.565372 6.840744 26.574601
835 2 1.879621 5.936191 28.990632
836 2 11.024654 22.600494 22.008129
837 2 25.901487 13.445346 7.130887
838 2 18.097224 18.101358 27.969428
839 2 8.119210 25.592119 29.152589
840 2 21.478188 0.393573 29.615631
841 2 1.586153 25.581003 9.464716
842 2 20.254512 9.247687 23.346821
843 2 27.740459 25.795093 3.046139
844 2 0.728594 18.442774 5.377888
845 2 6.748983 11.819941 18.107172
846 2 6.679109 11.515451 17.339132
847 2 2.195174 18.635889 31.276602
848 2 27.002381 19.163701 17.741644
849 2 24.869040 27.607721 29.273496
850 2 19.291364 6.767277 9.882018
851 2 20.390793 21.798780 25.606223
852 2 2.766507 21.640179 27.849845