ITEM: TIMESTEP
0
ITEM: NUMBER OF ATOMS
2078
ITEM: BOX BOUNDS pp pp pp
0.0 31.396334
0.0 31.396334
0.0 31.396334
ITEM: ATOMS id type x y z vx vy vz fx fy fz
1 1 6.665410 24.602219 3.388207 -0.01591007 0.01896053 0.01539830 0.00013538 0.00016144 0.00014966
2 1 13.281095 19.098372 17.719860 -0.02084085 0.01254450 0.03150315 0.00011756 0.00007832 -0.00004746
3 1 21.757976 18.038042 16.196780 0.04712169 -0.01862947 0.01105812 0.00009258 -0.00019433 0.00008010
4 1 30.654220 19.637810 18.096736 -0.03447670 -0.05028628 0.03173753 0.00010337 0.00006993 0.00007455
5 1 23.547361 17.299314 9.832472 0.05639649 -0.02158109 -0.04240827 0.00016582 0.00006974 0.00001027
6 1 8.278213 26.101722 14.349356 0.01376764 0.01524746 -0.00533906 1568.08837503 -2618.54644833 1878.86052885
7 1 7.364753 6.640814 27.239435 -0.04252943 0.02936497 -0.00461790 -0.00016508 0.00004102 0.00010240
8 1 29.136517 24.180635 7.176563 -0.03616559 0.02063892 0.00897247 -63211.47110272 -110556.09048161 -79193.95522924
9 1 29.166176 12.590357 15.347731 -0.03468608 -0.00523609 -0.04445368 0.00003992 0.00002543 0.00006280
10 1 20.476703 11.439194 13.320959 -0.00779608 -0.02684055 0.04394331 0.00004860 -0.00004445 -0.00010034
11 1 10.258573 8.404854 8.503400 -0.02927815 0.00904432 0.01365138 -0.00028514 -0.00013682 0.00011417
12 1 24.747419 25.998076 19.456028 -0.01457843 0.02609056 -0.02393129 0.00000603 0.00011608 -0.00002309
13 1 16.800168 24.504429 0.044884 -0.04773514 0.05363590 0.00322153 0.00005335 0.00002598 -0.00000824
14 1 21.532603 11.345969 22.200261 -0.03173129 -0.04050292 0.01938733 0.00019174 0.00003469 -0.00005171
15 1 5.841480 29.756218 20.376845 0.05163829 -0.00092844 -0.02827937 -0.00007151 0.00012267 -0.00001337
16 1 13.984977 14.656495 19.804508 -0.01175320 0.01689328 0.05978664 0.00692172 22.36640447 -8.17057620
17 1 16.719918 9.428482 12.890998 0.04709111 0.01330579 0.04077307 -0.00010883 -0.00009222 0.00013911
18 1 24.392019 0.131905 11.106704 0.02359228 0.04493599 0.00393316 0.00010578 -0.00003580 -0.00000507
19 1 28.944215 8.512332 0.627694 0.00995928 0.00674808 0.04363565 -0.00002437 -0.00018053 -0.00008230
20 1 21.131912 22.084311 21.072790 0.05318980 0.00010890 0.00116688 0.00000708 -0.00007585 0.00000860
21 1 7.019843 10.887722 22.662997 0.01620786 0.03078284 -0.00795108 0.00009451 -0.00003849 -0.00000948
22 1 13.999656 19.334960 25.734672 0.03880715 0.02767335 0.00733096 -49.80583649 69.84363047 -7.55664831
23 1 25.290478 0.578308 27.849243 0.04873593 -0.00414221 0.00600282 0.00006853 0.00013668 -0.00009842
24 1 20.567505 7.648070 23.154740 0.05576656 0.01590184 0.00717536 -0.00011392 0.00001647 -0.00005145
25 1 28.113755 3.659986 3.827295 0.03704119 -0.03973793 0.01088668 -0.00005204 0.00007357 -0.00001725
26 1 4.947193 30.282153 9.883724 -0.02069549 -0.00334143 -0.04109449 -0.00000152 0.00008688 0.00001041
27 1 27.484263 19.919432 25.940047 -0.01445987 0.04782435 0.00950880 0.00001586 -0.00002134 0.00004476
28 1 18.716788 29.767399 19.090325 -0.01638922 -0.01319847 0.03651443 23821.19662277 -31365.97997819 44064.93315951
29 1 14.039212 8.558813 25.679103 0.01356872 -0.03399707 -0.00716261 -7313699.28776701 -12863753.24911919 8374765.88550946
30 1 13.523641 14.606773 8.274625 -0.04848716 -0.01150465 -0.03656866 -0.00002806 -0.00003127 0.00005549
31 1 23.359977 4.713540 4.651493 -0.01668731 -0.04964757 0.08168129 0.00010273 0.00015983 -0.00016327
32 1 18.478528 3.788468 10.323766 -0.00057678 -0.01840988 0.00999241 -0.00004548 0.00001370 0.00003203
33 1 20.949834 15.204691 3.132252 -0.00971716 -0.02144717 0.01336878 0.00011613 0.00004877 -0.00013035
34 1 18.142962 13.965278 13.593762 0.04603964 0.03089090 0.01895064 -0.00001981 0.00006389 -0.00003961
35 1 15.816640 23.996000 17.945827 0.07324815 0.00896966 -0.02233060 -0.00002653 -0.00000529 0.00000499
36 1 1.947840 29.571835 27.638093 0.00692889 0.04332054 0.03728019 -0.00003399 0.00012654 -0.00002408
37 1 6.383948 23.755219 1.186668 0.04210303 0.00023966 0.04572390 0.00003016 0.00008396 -0.00008035
38 1 26.126331 8.294276 18.649206 -0.01765236 0.00802324 0.02450687 261411.27200091 -1116535.60567054 176332.76314805
39 1 26.477923 22.833137 8.303043 -0.00828823 0.00913904 0.05622986 -0.00063475 -0.00041475 0.00020637
40 1 29.976632 17.952489 25.345765 -0.00586029 0.01471008 0.03103905 0.00010852 -0.00010651 -0.00015089
41 1 8.071754 25.370683 7.120102 -0.00344782 0.06514480 -0.01980789 7.20063582 1.00207188 0.02936189
42 1 0.208927 22.866048 22.243404 -0.01628147 -0.03896086 0.03261261 -0.00003247 -0.00014049 0.00012299
43 1 22.226883 2.647064 14.121811 -0.04922852 -0.04292129 0.00584436 0.00015695 0.00006550 0.00010179
44 1 17.734432 5.076379 15.729062 -0.02620211 0.06908449 -0.00221107 0.00002706 0.00008426 0.00010009
45 1 23.856479 13.005985 0.068111 -0.06796507 -0.02060003 -0.01479421 -1388569.49119821 623629.41024143 -183702.67375179
46 1 7.567016 30.541040 28.965608 0.02492792 0.00601648 0.01920837 0.00004832 0.00013954 0.00013018
47 1 23.546832 20.760702 10.378128 -0.01642520 -0.01898977 0.02354303 0.00004992 -0.00008846 0.00005360
48 1 11.300137 9.979200 21.013901 -0.02291743 0.03715957 -0.00638783 -0.00035854 -0.00005612 -0.00012718
49 1 8.545690 16.211792 27.734395 -0.02841118 0.04057991 -0.01106647 0.00001344 0.00007348 -0.00016665
50 1 4.796391 20.874699 9.510879 0.00255387 0.00712800 0.00525124 0.00003677 -0.00007546 0.00011081
51 1 28.318767 4.278265 15.228541 -0.00927248 0.01834525 -0.03239805 0.00013182 -0.00004952 -0.00000513
52 1 11.857931 11.112043 22.328197 0.00007240 0.05984896 -0.00091751 -0.00032790 0.00000572 -0.00008244
53 1 0.167874 6.173303 26.439661 0.02077949 0.04667665 -0.05551451 0.00004007 0.00009796 -0.00009276
54 1 3.418035 15.298571 26.860248 0.00690280 -0.00177400 0.02940072 -0.00010376 0.00001574 0.00004402
55 1 6.697263 27.790630 11.904596 0.00868225 0.01107423 0.01850292 -0.00112402 0.00131156 -0.00154745
56 1 15.148208 24.200599 9.450336 -0.02082797 0.00056210 -0.02715978 0.00007043 -0.00007012 -0.00000956
57 1 25.151229 16.449983 8.228084 0.03097711 0.02179330 -0.00751084 -13.41735139 1.33324224 -6.04461520
58 1 6.468280 1.608047 4.167230 -0.08395986 0.01687853 -0.00962644 55.98420945 -277.34002574 -18.38485224
59 1 7.971353 18.332789 14.593147 -0.00866961 0.00586358 -0.00329523 -0.00003080 -0.00000710 0.00009848
60 1 18.897975 19.128994 4.309335 -0.01078638 0.02796945 0.02370279 -0.00012181 -0.00010503 -0.00003307
61 1 22.313190 3.126782 17.312874 0.05077567 0.00675168 -0.04497700 2106079.10944977 -3007001.97722279 2671292.83339386
62 1 1.592700 28.868634 12.174289 -0.00206822 0.02240784 -0.02619754 -0.00008389 0.00019278 0.00012409
63 1 13.206193 22.266981 27.399588 0.02082881 0.03690723 -0.01666200 -738246.84812205 -315936.26045629 -180600.64625152
64 1 25.887828 17.026413 14.045795 0.01236958 0.02959076 -0.01722843 6468.07532433 -2696856.85147386 -202379.92874091
65 1 17.754931 12.360651 13.521337 -0.06028308 -0.00349913 0.00077627 0.00009874 0.00006551 0.00004803
66 1 7.934828 10.140498 19.432390 0.00518545 0.02864246 0.01493388 0.00012567 0.00001035 0.00007658
67 1 25.722520 24.581779 26.405672 0.02073723 0.00483149 -0.02544209 -0.00003717 0.00003702 -0.00023037
68 1 8.099634 12.533842 25.616015 -0.04278456 0.00438666 -0.03052760 -0.00008116 -0.00007158 0.00020806
69 1 24.848612 27.888539 7.976915 0.00766757 0.01160359 0.00442619 -0.21727819 3.46714139 2.71688604
70 1 3.805626 23.869687 18.840422 -0.01585114 0.00951422 -0.01745875 -0.00022511 0.00002436 0.00005219
71 1 8.702992 25.997231 0.140400 0.00282767 -0.00073690 -0.08516247 0.00007965 -0.00012537 -0.00008138
72 1 29.473462 1.576074 12.654447 -0.01415369 0.03030684 -0.02363353 426.99572100 -3530.83706193 -3107.71106986
73 1 23.213148 19.117203 1.602476 -0.03511660 0.03551922 -0.00763833 0.00011323 0.00015852 -0.00009708
74 1 27.432283 5.941387 14.820116 -0.00687596 -0.00171942 0.02553758 -574865.53235456 1888989.28124208 287613.95701556
75 1 26.093901 8.572524 21.794401 0.00637143 0.01066380 0.00302170 -77851.33543243 228894.62957925 -182291.24333177
76 1 18.974560 29.783712 0.219627 -0.00119058 -0.02611964 -0.03266570 -0.00009504 -0.00003360 -0.00000176
77 1 29.729587 30.364222 8.594952 0.04166520 0.03634267 0.04032691 0.00040891 -0.00015849 -0.00044899
78 1 23.238579 17.761447 18.540841 0.00636848 0.01578712 0.06158249 -0.00015438 -0.00001274 -0.00004325
79 1 28.078603 13.595132 26.842070 0.02292407 0.03084396 -0.03215079 0.00008568 0.00006587 0.00016975
80 1 20.324930 3.456694 12.590725 -0.02951625 -0.01917494 -0.00673425 -0.00021037 0.00008622 -0.00044650
81 1 26.154058 19.254857 14.519681 -0.00799608 0.00251532 0.00484660 -0.06761795 -0.56684768 -0.12060158
82 1 10.207514 21.753110 26.481380 -0.00255535 -0.02920061 0.07785719 -0.00137762 0.00022569 -0.00019069
83 1 13.845195 6.265098 18.333416 0.05807976 -0.01062615 -0.01645159 -0.00000396 -0.00010698 0.00004349
84 1 25.783586 24.258401 1.940796 -0.01519684 -0.01444506 -0.00531248 -0.00014517 -0.00005610 -0.00022176
85 1 30.579053 19.344743 12.533577 -0.03097143 0.03762148 0.06496612 0.00031054 0.00003207 -0.00003163
86 1 20.012074 14.669340 29.154057 0.01586297 0.02579143 -0.04228302 -0.00043432 0.00040040 -0.00024796
87 1 16.882134 26.904470 30.652620 -0.00170834 -0.03417105 0.05392851 -167.66498097 1249.74564801 -88.49460620
88 1 0.531976 16.974395 12.660467 0.03413261 0.01034277 0.05709736 0.00011568 -0.00029203 0.00004660
89 1 0.937445 24.185021 29.763024 0.00957119 -0.00879915 -0.00615774 -0.00010383 -0.00017462 -0.00001116
90 1 23.732254 13.187683 22.883545 0.01351996 -0.01472053 0.02683834 -0.00029981 0.00031104 0.00005260
91 1 11.972513 13.794998 0.444533 0.05273951 0.07565895 0.00701493 0.00010387 0.00006422 -0.00001849
92 1 19.396969 29.913510 2.000657 0.03497751 -0.00782053 -0.02135997 -0.62813008 -1.63771752 1.87223027
93 1 6.639002 12.415464 4.509987 -0.01407128 -0.00888703 0.03123770 -0.00000478 -0.00009004 0.00004885
94 1 28.337212 3.342307 5.458533 0.00416536 -0.02047969 -0.03024439 0.00001388 -0.00001246 0.00011710
95 1 10.164409 27.711037 3.599410 0.03862776 0.04202028 -0.03186758 0.00016941 0.00022001 -0.00041532
96 1 4.712446 9.636427 1.761741 0.01109176 -0.02814947 0.01968123 -0.00017776 -0.00011773 -0.00003280
97 1 25.804497 14.639447 3.324039 -0.00955559 0.02865996 0.01277819 0.00093944 0.00056486 0.00076662
98 1 17.266507 8.573131 23.139694 -0.02909547 -0.10259465 0.08565084 -355544.43360545 -9707.87451499 -82377.02637557
99 1 28.931848 6.911236 14.238991 -0.02692080 -0.09425259 0.02101639 -7.04912699 -4.55907205 2.73164996
100 1 26.548588 28.026097 2.418581 -0.02762786 -0.01735877 0.00372786 -41.96042088 518.63807600 360.28192179
101 1 23.928108 19.877987 18.687158 0.00924465 -0.05536910 0.03751750 -0.00019061 0.00005445 0.00022793
102 1 12.420586 29.405143 16.887151 0.00724283 0.06877643 0.04946844 0.00000655 0.00012109 -0.00010151
103 1 31.302312 7.249601 21.602411 -0.08366039 -0.03713852 0.00387198 -639.48687863 -15462.34385797 23300.84676989
104 1 3.301505 29.434713 9.437958 0.02307583 0.01347091 0.04094291 -0.00016185 0.00003248 0.00013346
105 1 16.747046 2.619552 26.499057 0.03242142 0.03398170 -0.00287496 -2.39892084 -347.39785414 184.94241988
106 1 29.493290 14.754055 0.913055 0.05033392 0.01575731 0.07288262 0.00012876 0.00002855 -0.00013811
107 1 15.345293 4.948526 11.956181 -0.05034897 0.03357786 -0.01265721 0.00009248 -0.00017247 -0.00000486
108 1 13.424513 6.293147 18.795253 -0.03938927 0.01045856 0.01094087 -0.00006082 0.00006127 -0.00021669
109 1 26.077736 1.823878 11.991017 0.04160780 -0.04591067 -0.01656913 -0.00254342 -0.00001689 -0.00069956
110 1 20.736098 6.992882 14.539826 0.00943228 -0.04216635 0.02028222 -0.00032492 0.00014298 -0.00028431
111 1 26.920711 12.101433 18.844614 -0.00805250 0.01452767 -0.00015527 0.00050176 0.00237246 -0.00032409
112 1 9.692864 6.215549 8.330583 0.08936986 0.01628598 0.02727966 -0.00003536 -0.00001902 0.00005191
113 1 18.566327 23.766233 10.804832 0.02136370 0.00355434 0.03104882 -0.00021030 -0.00010955 0.00008818
114 1 23.919548 29.847494 7.358332 0.00361232 0.01939783 0.04665218 0.30581910 -0.64517691 0.20392706
115 1 0.283737 11.991331 30.764779 -0.02582023 0.03442050 -0.02536371 1072572.72266057 780553.47013221 1340586.24144400
116 1 27.612140 21.057546 15.616665 0.01251808 0.00631890 0.08531002 0.00030500 0.00047510 0.00025601
117 1 25.021397 24.925096 7.693151 0.02663767 -0.01940289 -0.02759488 -0.00172356 0.00620582 0.00057210
118 1 5.201016 19.430248 15.644851 -0.02430285 -0.02658861 0.00455280 298.38289177 -141.85960603 -155.62744154
119 1 25.231441 11.151418 19.279252 0.01191421 -0.02213007 0.05941539 0.00007602 -0.00053758 -0.00210521
120 1 28.912880 18.793380 3.858388 -0.01759217 0.06033402 0.09851943 -0.00007231 0.00007981 -0.00018845
121 1 21.835714 5.892064 11.830799 -0.01710847 0.02551124 0.01450891 -0.00022105 -0.00008581 -0.00023365
122 1 22.114752 27.273730 13.235582 -0.04770396 -0.03567695 0.03250755 -0.00007616 0.00007528 0.00025556
123 1 0.846215 18.622426 20.583900 -0.01333348 -0.04529593 0.00107961 -0.00004469 -0.00007294 0.00008613
124 1 23.855882 12.140107 4.216953 -0.00804532 0.04278222 -0.02834254 0.00002730 -0.00030697 0.00105264
125 1 24.224248 15.070097 17.768669 -0.07619032 -0.03030428 -0.05768908 -0.00024021 -0.00038853 0.00053018
126 1 6.312238 26.282832 20.733043 -0.01429697 -0.03527381 -0.00718524 -0.00002068 0.00007457 -0.00002101
127 1 6.290270 22.369533 13.388155 0.00383433 0.03317466 0.05483775 -49434031.37803832 -2188760.74847837 -38079372.61881533
128 1 16.512509 24.577448 28.473524 0.02652139 -0.00361751 0.00467892 0.05139543 -1.18006095 0.55536337
129 1 28.184445 18.077519 19.938579 0.00205724 0.00892054 -0.02550477 0.00010692 0.00000360 -0.00004259
130 1 7.298609 10.999274 8.469478 0.00907403 0.04690022 0.03413474 0.00003181 -0.00006328 -0.00008888
131 1 2.349225 21.497373 4.794480 -0.01735589 0.00695508 -0.00050131 -804128.90681146 -1048147.02021689 -387622.76889944
132 1 0.553020 20.857687 9.651337 0.07206285 -0.03527378 0.04910073 0.00013948 -0.00006398 0.00059491
133 1 19.894430 2.247499 16.384875 0.02167287 0.02622826 0.00019565 0.03485847 0.01300446 0.01310566
134 1 0.462557 1.632277 30.285068 0.00212288 0.03373437 0.03193466 -0.00011534 0.00012525 0.00005232
135 1 31.295692 17.942145 5.929201 0.01570538 -0.04762628 -0.00205705 -0.00050924 -0.00084231 0.00022326
136 1 12.789137 24.772345 13.747410 -0.00767175 0.00374764 -0.07418827 0.00056363 -0.00006651 -0.00017829
137 1 10.767121 26.330142 30.284966 0.05256383 -0.05642600 -0.00435816 -43.61723574 109.45732668 26.68282353
138 1 7.391045 30.442104 27.167172 -0.00242212 -0.00518640 0.06307462 0.00014304 -0.00006546 -0.00016081
139 1 0.791783 1.163326 24.534800 -0.00937057 0.00138619 -0.06749550 0.00005980 -0.00021650 0.00012646
140 1 24.801435 21.897617 7.262310 0.05400459 0.02570507 -0.02046139 -0.00042711 -0.00008396 -0.00022364
141 1 29.368598 7.201455 22.067599 -0.01832172 -0.03918487 0.01995725 3.97889037 0.09782079 -0.95576729
142 1 28.443548 1.595977 27.699828 -0.01765886 -0.00993065 0.00888123 -0.00007030 0.00022064 -0.00003438
143 1 23.889414 9.274239 6.628549 0.08795202 -0.01135856 0.00863092 -0.00012688 -0.00007019 -0.00008185
144 1 8.734282 7.048981 30.116168 0.02691491 0.01900324 0.00004584 1105.40521334 1550.57820164 28.54749157
145 1 12.503211 12.995070 11.380656 0.00540937 0.01571284 -0.02529889 0.00008865 -0.00004671 -0.00003325
146 1 9.728896 21.045494 3.834391 -0.00983014 0.06836860 -0.03851851 0.00004127 -0.00027806 -0.00003138
147 1 15.583165 14.612902 7.271447 -0.00955294 -0.02511982 -0.00417535 4303.46746006 -16720.77979405 9976.53356637
148 1 10.256094 0.277084 12.681081 -0.00352052 0.00965141 -0.02777154 -0.00000130 0.00000402 -0.00010806
149 1 5.443093 11.041987 31.228127 -0.01609869 0.02439603 0.02154423 0.00015075 0.00020834 0.00005697
150 1 13.188822 20.200757 17.283477 0.02503822 -0.02250775 0.01608327 -203763017.13204271 82415620.99028669 28159595.48767793
151 1 8.806943 6.779112 14.469413 -0.01248113 0.06194944 0.03017375 0.00004441 0.00013664 -0.00002591
152 1 31.196034 19.565451 15.957839 0.02928762 0.00037859 -0.02185132 -0.00006742 0.00014190 0.00020974
153 1 19.816747 8.000643 23.359657 0.02257108 0.01187958 -0.01251438 1052.34120379 3100.49769532 -180.30198892
154 1 7.906948 12.156183 17.857393 0.02754434 0.04284270 0.00484915 -61149.24631363 -3109.41508037 6902.92814405
155 1 16.803033 11.008795 9.613488 -0.03287396 -0.01497068 -0.00540887 0.00032068 -0.00063939 0.00053350
156 1 26.200062 19.303273 8.405165 0.02552728 0.01941269 -0.00275765 -567266.83170745 -149895.07647062 1280032.37037776
157 1 23.697339 9.726076 27.207961 0.02128588 -0.03747458 0.01959161 -0.00005591 -0.00012475 -0.00001687
158 1 2.318845 27.694674 6.765648 -0.06372904 -0.05923885 -0.02882675 301.37505640 -86.65458958 -217.91153466
159 1 11.359420 19.191688 17.545419 -0.01996630 -0.02811979 -0.02657605 1.65262434 0.91166474 -0.23669640
160 1 0.666704 22.410430 18.254892 0.02271198 -0.05211654 0.02447693 -0.00012483 0.00004457 -0.00000749
161 1 9.157030 11.212054 0.726625 -0.02225702 -0.00939239 -0.00503278 -0.00002253 0.00067682 0.00040765
162 1 5.620267 1.743937 23.043319 -0.04194830 0.02417486 0.05229559 -0.00006026 0.00007146 0.00004643
163 1 23.810124 10.511533 18.961647 0.00295718 0.00995117 -0.00588196 -0.00170158 0.00170314 -0.00085790
164 1 21.811847 27.379902 24.960135 0.02079952 0.01953424 0.00443224 0.00011506 0.00003012 -0.00002917
165 1 6.564806 29.269482 21.578803 -0.00332887 0.01667443 0.00432008 -0.00009973 -0.00011722 -0.00006620
166 1 17.556686 5.992813 4.071424 -0.02640534 -0.05075413 0.03461247 -0.00002247 -0.00001372 -0.00013828
167 1 29.832962 24.503408 15.217233 -0.03953024 0.00829475 -0.03970098 2346.83852098 -1554.48261410 756.02248773
168 1 0.729217 26.380245 14.456345 0.00857495 -0.00617529 -0.01625861 -0.00163512 -0.00157350 0.00070060
169 1 3.287465 24.012234 2.164917 -0.01591294 0.03058815 0.04687785 -3.65325134 3.97031019 -4.95603831
170 1 3.102480 23.282360 5.598638 -0.00092744 0.00211591 -0.01062884 -0.71881457 -1.70469903 -0.76523237
171 1 5.820980 28.982507 9.691065 0.04720228 0.00302247 0.00937709 0.00018254 0.00038038 0.00056673
172 1 1.407716 13.175221 2.211171 -0.01630226 -0.02033450 -0.01210139 0.00055478 0.00075164 0.00145914
173 1 17.500981 1.503627 26.999156 -0.00138471 0.02297368 -0.03696580 -156.65068861 231.86421404 -103.90928152
174 1 4.632218 24.423099 28.940812 0.04888089 -0.00755306 0.00592886 -114805.44019242 191279.52224733 285328.53836204
175 1 0.319241 4.461308 16.886249 -0.00398793 -0.02892808 0.04986435 0.00053396 -0.00001737 0.00009473
176 1 0.210944 0.024115 24.534767 0.01205240 -0.02254257 0.01295695 76.16601445 108.98431625 -24.95465706
177 1 20.601364 24.380343 12.335171 0.01326386 -0.00946816 -0.03180438 0.00010985 -0.00004841 0.00023503
178 1 26.560582 20.289197 14.186791 0.00965012 0.03103811 -0.00660567 0.00055143 0.00198560 0.00012002
179 1 5.292765 18.525428 10.723889 -0.01609854 -0.03012102 -0.03260639 -0.00024060 -0.00066726 -0.00074813
180 1 10.701655 2.426483 24.772147 -0.01911862 0.03223783 -0.04398817 0.00002367 0.00004341 -0.00003587
181 1 23.513184 28.569322 5.149823 -0.03454998 0.02839643 -0.01423306 -0.00139921 0.00042811 0.00030134
182 1 6.300378 30.451685 25.865933 0.02041963 -0.01193038 0.04084409 0.00001743 0.00015827 -0.00008152
183 1 9.758366 25.082560 12.913261 0.00367047 0.00301781 0.04423794 -0.35960858 0.24871384 0.34960307
184 1 30.190468 14.180816 31.272307 0.03497903 0.03193284 0.00641241 -1.72743844 1.28004237 2.40829426
185 1 6.753513 9.702604 25.348356 0.01458465 -0.03177970 0.03103562 966.06855589 -461.49440826 1651.00234844
186 1 28.656304 21.366125 25.736117 -0.03807675 -0.01855404 0.02315024 -0.00001587 -0.00001257 0.00003750
187 1 28.907519 17.624222 12.237449 0.00825439 -0.00831480 0.04226138 0.00262214 0.00041067 -0.00090355
188 1 29.720680 5.452674 15.062091 -0.06099361 0.04675485 0.01124040 44.07114324 -70.50415353 11.40394918
189 1 21.889037 11.345864 28.329561 -0.04928546 0.02007767 0.04254187 -0.00065944 -0.00044199 -0.00106058
190 1 25.505452 4.166710 1.339928 -0.02433963 -0.04256599 -0.02594499 -659.54439885 -739.84393975 -884.91253436
191 1 23.064110 26.016755 6.782074 0.02625707 -0.04286875 -0.01416923 -36.88360126 -183.53584884 306.18175169
192 1 18.045284 8.668215 21.711796 0.00173006 -0.00416679 -0.01778426 3120.73294330 -1699.96696786 -774.49657700
193 1 13.764730 29.642997 2.767132 -0.02479259 0.00378214 0.02144644 -0.00013409 0.00026697 0.00029679
194 1 14.923186 13.591076 26.367804 -0.00621511 -0.00489392 0.01110192 0.00014173 0.00035760 0.00018938
195 1 30.547570 22.798591 9.440121 -0.01460711 0.00032425 -0.03190679 -0.00223086 0.00227925 -0.00360771
196 1 3.340473 3.064341 14.170420 0.02174614 0.03442258 -0.02477404 0.00023646 -0.00005847 0.00015113
197 1 15.567936 1.882622 26.964840 0.04501723 0.01909633 -0.04098124 183.56424617 114.72549126 -72.51315198
198 1 24.039978 6.267931 25.654889 0.01319993 0.00339036 0.02005856 0.00000733 -0.00020822 0.00054080
199 1 7.643543 11.604248 10.171218 0.02257722 -0.01175947 -0.08826027 -0.00007051 0.00006278 0.00001552
200 1 1.830819 0.604675 7.061203 -0.03755839 -0.02461766 0.00515921 -0.00039491 0.00100629 0.00027787
201 1 23.623786 7.947852 7.262550 -0.00344023 -0.03437169 -0.01764733 -57941.29975146 47547.15346316 215877.26832343
202 1 16.189925 6.796517 26.663269 -0.00285469 -0.00043483 0.02584859 -0.00708475 0.00523006 -0.00105854
203 1 28.387688 17.881836 11.277802 -0.00810691 -0.00660545 -0.04456210 0.00288979 -0.00002246 0.00034001
204 1 15.363660 10.297242 14.528920 0.04492656 0.01745609 0.00421826 -0.00017352 -0.00006911 -0.00006498
205 1 13.633030 5.022361 17.654974 -0.06397725 0.00344860 -0.02189499 0.00011240 -0.00000238 0.00017517
206 1 0.731224 0.904287 20.218551 -0.00169397 -0.00302619 -0.04393120 0.00019072 -0.00005217 -0.00081617
207 1 9.926594 19.661574 19.198785 -0.00486129 -0.02282254 -0.00648231 -0.00164788 -0.00026004 0.00102045
208 1 20.706398 1.106250 30.638289 -0.03765486 -0.02905798 0.01941071 0.00058453 0.00115491 -0.00114854
209 1 25.670752 28.217071 9.647340 0.04904615 0.00932744 0.00051530 -3.51467888 -1.40409862 -7.14073480
210 1 30.215154 5.121445 28.301892 0.00517913 -0.03094727 0.01854369 -0.00000154 -0.00003062 0.00006101
211 1 27.536482 23.653939 23.023298 -0.01581521 -0.00577258 0.02223704 0.00015090 0.00010911 -0.00007764
212 1 18.223495 16.127184 5.730061 -0.06262891 -0.00099645 -0.00482356 367.00082866 -398.53198964 1051.34285250
213 1 25.065382 14.887018 6.569020 -0.07000557 -0.01357143 0.07456421 0.02374414 0.43213024 0.45892065
214 1 24.756525 23.830293 24.847328 0.01717315 0.00207659 -0.03556300 0.00005054 0.00007840 -0.00002735
215 1 27.258995 20.172475 9.852272 -0.01085450 -0.01268186 -0.02561641 -2.12622971 -1.74512617 -2.90576838
216 1 23.762498 18.634521 11.038760 -0.03726063 0.01528899 0.06899029 -0.00315809 0.00150879 0.00192483
217 1 7.405995 21.869716 19.548855 -0.02643884 -0.02499889 0.00969331 -0.00000609 -0.00000020 0.00044750
218 1 23.458731 21.970894 23.222106 0.02242553 0.03452095 0.04980959 -0.00001693 0.00005622 0.00002126
219 1 27.342998 1.363668 6.711151 0.01413107 0.00275425 0.00948948 96559.06594771 -83803.88275768 -63454.51537825
220 1 9.239989 10.734002 2.617602 0.00724924 -0.02079706 -0.00048861 -0.03204217 0.02284779 0.23086215
221 1 13.351890 3.532797 10.051641 -0.00654218 0.00147275 -0.01629984 15.73998483 -25.72193071 -30.05801668
222 1 23.371618 13.073238 7.351437 -0.00165511 0.00719269 0.03885663 -0.00074215 -0.00114976 -0.00045467
223 1 16.443991 4.384984 14.980152 0.02426341 0.00782988 0.04717539 -0.00003488 -0.00000968 -0.00001316
224 1 16.748161 3.484149 9.358594 -0.06819599 -0.02124888 -0.06151832 0.00242428 -0.00011012 -0.00048456
225 1 0.581907 22.183090 26.660948 -0.00307798 -0.00586621 -0.04823731 -0.00015653 -0.00028800 -0.00015119
226 1 7.638266 9.382771 29.600500 0.00233434 0.00433645 0.02510082 0.03203786 -0.06800705 0.01570827
227 1 6.612855 30.680627 4.137384 -0.00121395 -0.01680845 -0.00598519 -0.02924768 0.47132899 0.00600250
228 1 6.568192 16.829480 25.168832 0.04274042 0.00799053 0.05457484 -0.00000074 0.00003573 -0.00000532
229 1 25.933421 17.248308 17.148939 -0.01826208 0.05037301 -0.00417839 -0.00008305 -0.00001818 -0.00073642
230 1 16.433028 15.787033 17.375455 0.01667523 -0.02617622 0.02188157 0.00181245 0.00054595 -0.00155496
231 1 12.554280 6.470940 21.081083 0.01645108 0.01435471 -0.04565406 -1.50639743 3.55125341 4.27033378
232 1 4.995193 12.771239 27.920605 0.01099272 -0.01047800 0.00208281 -0.00017720 0.00095026 0.00031132
233 1 14.469737 18.945464 1.411331 0.01949590 -0.02317771 0.04608837 -0.00005288 0.00008271 0.00012124
234 1 14.304486 12.876321 7.439831 -0.04501637 -0.03593318 -0.01336175 0.77806847 1.05670088 -0.10233779
235 1 19.063037 8.123784 21.441746 -0.02338747 -0.00399533 -0.05185086 -52.91483831 -17273.29504208 13203.91777776
236 1 18.928290 22.562864 25.511926 0.01344940 0.01044629 0.01588895 0.00097493 -0.00042106 -0.00078923
237 1 25.159987 27.566390 27.848860 0.05783264 0.04551313 0.01197337 -42889.61494107 -55279.30214127 -104648.24249798
238 1 5.018922 1.169642 13.482841 -0.03560412 0.04696575 -0.09783174 -105.04132541 1128.39815902 485.26221249
239 1 12.561079 28.339320 17.857529 -0.04388496 -0.00805786 0.01135496 -0.00006650 0.00001028 -0.00007970
240 1 14.134095 8.943861 21.297228 -0.01275592 -0.02817284 0.01118765 -0.00908294 -0.00714466 -0.00288525
241 1 5.331156 6.629727 8.763629 -0.01742369 0.02595072 -0.03371852 3.06311788 18.79815609 -30.29520158
242 1 12.668514 7.881684 6.040395 0.02262714 0.00444591 -0.02215843 0.00012012 0.00011878 -0.00011628
243 1 27.054127 19.278528 16.694963 0.03523213 0.00724831 0.00346212 0.00069055 0.00148692 0.00152091
244 1 28.848502 23.485670 9.090738 0.02550365 -0.03295199 -0.01671106 0.36659998 0.88387558 -2.43422772
245 1 26.720291 11.629874 20.000097 -0.00100334 -0.05036103 0.01052514 0.00083264 0.00432584 -0.00022874
246 1 0.738120 11.534730 24.892711 0.00562629 -0.03007294 0.02407542 -7601.36390854 6675.10365497 3935.28693043
247 1 28.659161 14.648560 12.151857 -0.02035567 0.02816583 -0.00991313 0.00100875 -0.00084463 -0.00066288
248 1 8.943282 31.114014 17.865742 -0.00514719 0.01679987 -0.02432193 -8.50789321 -19.84900572 11.13586441
249 1 1.814457 14.257133 5.392389 -0.02820495 0.04096379 0.01330122 -0.00003604 -0.00001270 0.00015807
250 1 14.236443 9.526844 20.410623 -0.00017023 -0.01491523 0.02944672 -0.00150734 0.00239411 -0.00185518
251 1 8.177471 11.079212 20.896882 0.07319019 -0.01477018 0.01310204 0.00013894 -0.00013571 0.00091538
252 1 7.676526 17.017096 6.280722 0.00643084 -0.05057830 0.03576454 0.00008152 0.00017022 0.00004638
253 1 21.514289 5.720407 17.991308 0.03851678 -0.03677265 -0.00426817 51.45851798 291.11246385 447.95076089
254 1 25.222807 24.095554 10.957514 0.00493654 -0.02593961 0.02070513 -0.00002394 -0.00045973 0.00066781
255 1 21.252778 0.457419 4.961277 0.02704333 -0.01058570 0.04808717 0.00045715 0.00104413 0.00128620
256 1 30.487326 27.622548 19.191784 -0.01149947 -0.00501908 0.01646552 0.00005416 0.00036547 0.00033130
257 1 2.212840 5.941374 19.144276 0.04685793 0.04059373 0.02937703 11.75945456 1.88483856 -27.45810611
258 1 30.808148 16.378366 14.374766 0.00966986 -0.02890063 0.02786818 0.00032954 -0.00015206 -0.00006745
259 1 12.238183 3.258722 25.440213 0.01131417 -0.04454661 0.03384795 1033.01870227 -2524.36780029 -2966.55536121
260 1 21.198749 10.064631 17.160575 -0.09110388 -0.01577927 -0.00789461 -0.00017006 0.00112490 -0.00083103
261 1 16.060752 29.359882 3.251810 0.02843634 -0.01202698 0.04846235 -0.00240000 -0.00002817 0.00145624
262 1 18.814678 24.581038 20.653355 0.00289343 0.04874729 0.01327331 -0.00016400 -0.00017975 0.00012524
263 1 21.595698 5.812176 19.357665 0.03982882 0.00269530 -0.01551221 -32.33012637 -36.44436629 -542.63069304
264 1 20.146142 4.917679 14.920763 0.00065262 -0.00337814 -0.00574101 -0.00231183 0.00072537 -0.00384549
265 1 2.261857 3.530627 29.056028 0.01898028 0.01111055 -0.02598163 0.00008369 0.00010117 0.00009294
266 1 3.481327 3.136875 11.191767 0.04013727 -0.00026625 -0.01791048 -0.00123730 0.00093019 -0.00141088
267 1 23.025603 29.269673 16.719075 -0.04034116 -0.02878733 0.06129572 0.00052255 -0.00030478 -0.00018423
268 1 25.864813 6.204704 10.287158 -0.06808007 -0.01700803 -0.03090233 -0.04394196 0.09387408 -0.22609105
269 1 29.581960 14.403356 13.144119 0.03669130 -0.02757952 -0.01356837 16.04888003 21.24305103 -6.92090737
270 1 28.112770 17.408815 14.088198 0.00013083 -0.01422018 0.00023667 -0.71749622 -0.12088721 -0.01294678
271 1 0.604991 1.637103 3.399914 0.04508638 -0.04469324 0.00555001 -0.00014962 -0.00025877 -0.00006595
272 1 2.688238 27.432151 26.533556 -0.01270133 -0.05971338 -0.01060152 -0.00028857 0.00049617 -0.00031577
273 1 19.651367 16.959251 24.074208 0.00277022 0.00530271 0.01825198 39.31166463 -17.87090446 -54.87126772
274 1 27.319191 29.911259 29.962202 -0.06163547 0.02390424 -0.00087220 0.00138028 0.00160899 0.00024210
275 1 24.873951 3.447279 0.489444 0.00643471 0.00005944 -0.01556791 665.67526653 757.28597050 879.54854066
276 1 26.088831 11.724392 25.764088 -0.03678290 0.07285987 -0.02759072 -1.08671752 7.01465758 1.67979446
277 1 14.116214 10.707988 19.859173 -0.02244790 0.05636651 0.02048964 -0.00063220 -0.00071107 -0.00078674
278 1 8.234462 31.326088 6.202848 -0.01048176 0.01999166 -0.02164652 0.00037889 0.00003369 0.00039742
279 1 29.012956 10.010927 8.523979 0.01492671 -0.00072853 0.04855480 14.16795039 -22.15620561 13.92237019
280 1 18.707288 23.423902 28.461933 0.01381972 0.01275577 0.03474069 -0.16727504 0.08782762 0.00047489
281 1 14.138975 0.083869 6.355665 -0.01531661 -0.02661443 -0.01535634 0.00018086 -0.00013989 -0.00016939
282 1 16.144951 21.973852 28.292244 0.01247802 -0.01610142 -0.01051492 0.00934087 0.07352058 0.00516776