LAMMPS data file for silica system 30

2847 atoms
2 atom types

0.0 33.668230 xlo xhi
0.0 33.668230 ylo yhi
0.0 33.668230 zlo zhi

Masses

1 28.0855  # Si
2 15.9994  # O

Atoms  # atomic

1 1 30.247829 10.580439 21.514595
2 1 18.292317 25.039144 4.155308
3 1 9.852313 24.630490 10.899338
4 1 25.447690 14.517655 23.688138
5 1 13.103899 3.859403 13.259456
6 1 18.113893 28.546070 25.617069
7 1 5.490922 32.630496 12.101818
8 1 31.142063 13.185859 26.890195
9 1 10.068055 16.332839 29.723446
10 1 23.579493 16.963953 22.362003
11 1 18.953499 25.909323 19.188339
12 1 30.324723 21.897022 11.595319
13 1 0.319761 24.212945 21.936582
14 1 9.509501 7.674850 8.083953
15 1 19.648105 21.599492 32.026060
16 1 12.493581 18.945217 24.101492
17 1 25.163416 26.007932 14.178258
18 1 26.306168 7.063063 23.334953
19 1 22.448222 9.455469 19.787301
20 1 20.122199 29.493967 13.281305
21 1 14.128954 24.194888 22.466519
22 1 4.194641 14.777364 13.619699
23 1 28.723021 28.943606 29.035880
24 1 10.648538 28.027053 23.270675
25 1 24.118130 12.620923 7.460870
26 1 11.250278 17.380255 10.362631
27 1 23.244557 16.393982 5.762957
28 1 7.667634 26.171286 20.778727
29 1 25.808350 22.701598 6.501410
30 1 12.132249 30.747024 10.998908
31 1 17.299711 18.230149 3.005817
32 1 21.978986 24.417643 23.421811
33 1 10.584496 11.339939 25.562104
34 1 14.853474 3.511724 31.332728
35 1 22.623536 10.892767 4.576219
36 1 5.508535 19.542870 32.617493
37 1 13.115049 23.981203 21.082589
38 1 29.299610 6.752733 14.477414
39 1 3.465398 6.476260 11.444683
40 1 33.420635 0.776647 22.694212
41 1 28.219113 32.582654 32.165911
42 1 3.276172 21.001113 18.349247
43 1 23.744488 12.942234 3.748870
44 1 1.396085 0.396540 30.061786
45 1 13.057175 12.471453 14.674930
46 1 22.188637 32.807963 12.791632
47 1 33.464389 32.229058 33.163924
48 1 6.553568 25.592034 31.660237
49 1 27.374743 0.112602 20.776133
50 1 14.427554 1.986026 8.835113
51 1 12.395227 4.720479 29.589656
52 1 16.215417 27.347314 31.489793
53 1 29.437875 28.611809 11.135424
54 1 0.699458 15.997119 24.822726
55 1 8.996814 8.503235 16.595037
56 1 19.255352 21.139284 23.180506
57 1 30.441199 16.202985 31.134191
58 1 28.521847 29.671576 16.817879
59 1 20.166934 16.988922 32.903014
60 1 5.531075 2.800727 17.286031
61 1 21.613308 23.168551 29.887331
62 1 12.969181 0.841049 27.257174
63 1 15.088418 32.350815 30.666462
64 1 15.889709 7.328059 8.304185
65 1 20.750527 1.313595 8.935870
66 1 12.995311 18.400665 26.984258
67 1 8.451753 12.271372 33.345994
68 1 11.954613 30.768596 16.534363
69 1 29.358491 10.153130 22.227137
70 1 10.740071 25.988397 4.979540
71 1 29.718869 8.779908 26.492753
72 1 13.962030 33.646390 21.959845
73 1 5.260553 15.715128 4.564367
74 1 23.285176 22.553151 32.618815
75 1 14.416470 0.773531 32.182001
76 1 22.180022 10.838656 30.775808
77 1 0.953381 8.514993 23.207132
78 1 2.472128 21.788846 25.228835
79 1 13.550552 14.098515 14.061977
80 1 13.978131 22.960587 20.638282
81 1 0.947312 25.276632 21.441717
82 1 19.391384 19.192330 23.863904
83 1 15.659282 24.562187 11.737649
84 1 6.354570 17.925584 11.922934
85 1 24.489444 15.051129 25.222065
86 1 20.090044 11.210363 32.473250
87 1 2.479151 22.215834 12.673187
88 1 8.392769 10.089387 30.456001
89 1 20.702034 4.021999 32.502631
90 1 4.540936 9.021356 29.316230
91 1 32.075068 19.610210 32.100478
92 1 12.547153 15.578085 24.724220
93 1 10.727290 22.166871 3.685458
94 1 23.988605 4.995731 6.364651
95 1 20.518259 21.027790 26.714426
96 1 4.478868 3.689186 27.409686
97 1 7.940968 14.474935 6.763383
98 1 23.937470 26.179580 13.012104
99 1 16.553569 22.880901 13.754829
100 1 18.084686 20.045387 27.712111
101 1 25.049755 27.023431 11.556520
102 1 9.710364 32.215306 10.237608
103 1 20.341200 14.063297 8.656266
104 1 17.904081 1.818696 14.859685
105 1 22.867833 21.234757 0.405635
106 1 16.296964 18.186746 15.207539
107 1 24.587136 0.136869 18.827641
108 1 29.125857 5.454303 24.851651
109 1 24.508519 24.504872 3.641553
110 1 23.393276 8.008819 16.372427
111 1 0.197182 5.401870 32.741257
112 1 5.734249 12.817486 25.110556
113 1 0.659765 21.623783 14.960685
114 1 6.864525 19.758685 26.105708
115 1 17.887766 12.366892 14.678444
116 1 0.822894 3.035360 6.451673
117 1 18.980450 1.083578 0.020583
118 1 5.713053 10.798879 7.316388
119 1 7.288157 9.696457 16.230033
120 1 1.690670 8.343008 29.255373
121 1 30.042828 26.873861 16.767962
122 1 33.510578 9.796584 24.607546
123 1 18.417265 5.682181 25.210688
124 1 26.916381 23.501735 21.164844
125 1 17.814469 14.774210 26.105561
126 1 31.248495 12.965554 31.615044
127 1 19.293913 28.725848 5.780811
128 1 2.357592 1.497413 27.868708
129 1 2.950788 25.968457 30.146119
130 1 5.218481 22.535891 4.131509
131 1 13.560508 10.004957 32.039482
132 1 13.378828 3.093188 2.341374
133 1 19.814555 13.029951 0.098348
134 1 16.009462 6.570696 18.149509
135 1 29.819955 1.436782 9.922840
136 1 33.503592 13.920065 3.445763
137 1 6.403775 27.000803 26.387703
138 1 31.530780 0.626773 10.086815
139 1 23.668267 26.906675 26.513249
140 1 24.074103 0.508041 1.056853
141 1 31.294039 18.495589 28.646944
142 1 26.677475 11.984993 10.813734
143 1 17.425781 4.414362 20.149238
144 1 6.101480 28.225305 29.075184
145 1 6.010768 16.805611 26.441396
146 1 29.090216 20.955764 22.089342
147 1 4.520882 3.741715 11.592162
148 1 16.086082 5.531437 9.026646
149 1 6.656033 20.024907 19.309431
150 1 16.268877 11.794053 22.784158
151 1 1.690107 23.309668 3.477786
152 1 11.127759 22.516260 19.174497
153 1 17.927774 4.998921 5.523451
154 1 24.926396 4.387705 19.803648
155 1 23.532269 12.357211 7.137297
156 1 7.365401 25.314504 10.144878
157 1 24.306055 5.828519 1.818487
158 1 12.974391 21.430668 19.718266
159 1 24.776040 5.531661 15.047054
160 1 16.202679 29.632205 22.053286
161 1 26.734283 3.068260 12.688811
162 1 15.729391 18.432723 18.281526
163 1 30.863043 7.613760 2.217174
164 1 12.774935 13.158669 9.343761
165 1 26.481825 25.620269 11.295041
166 1 2.145933 27.877815 32.412283
167 1 12.134657 22.993079 30.403933
168 1 16.948235 26.161834 21.201041
169 1 12.539019 14.673517 11.607973
170 1 25.397361 29.622551 15.605404
171 1 27.094286 14.964014 16.690450
172 1 25.532143 14.286523 17.856282
173 1 13.416837 16.063607 7.676629
174 1 13.109457 31.495564 27.997558
175 1 6.978574 11.948562 32.952982
176 1 2.754737 1.409868 0.074657
177 1 23.735170 20.301277 9.169823
178 1 30.861293 7.749681 12.032374
179 1 21.472934 19.952938 24.270180
180 1 18.901831 14.676995 12.860800
181 1 26.420415 16.313626 6.638063
182 1 9.753892 21.017958 10.553254
183 1 9.462666 29.611584 19.644783
184 1 6.256663 6.666610 30.528620
185 1 29.684146 11.533316 9.403106
186 1 9.753347 20.179912 5.695626
187 1 18.172857 20.093003 31.295590
188 1 29.409883 10.783831 32.805241
189 1 7.408757 21.139221 4.040164
190 1 13.953149 1.171313 4.172453
191 1 12.894532 29.755940 10.729675
192 1 5.732972 23.613218 11.160108
193 1 13.723073 8.149300 7.839888
194 1 2.354419 7.636401 32.218755
195 1 32.673370 30.393688 4.218512
196 1 1.551980 19.349421 17.872797
197 1 27.327695 6.165640 3.342954
198 1 1.983066 26.607778 33.463068
199 1 6.038258 17.708803 8.592518
200 1 32.046636 2.944450 21.533263
201 1 27.008291 7.652425 19.319450
202 1 19.924165 13.674029 26.679055
203 1 28.938998 23.655499 15.775048
204 1 24.429413 0.239180 5.173203
205 1 8.911043 14.954653 13.440701
206 1 24.169201 30.918191 9.749532
207 1 25.861141 25.253726 14.368328
208 1 25.457292 33.360111 20.356667
209 1 19.642197 29.453142 26.127546
210 1 2.978918 27.645050 30.799333
211 1 31.993940 10.850201 17.184808
212 1 25.463805 11.128754 32.026574
213 1 20.771130 19.932566 3.743907
214 1 8.898042 18.945228 11.588340
215 1 29.847157 0.550367 4.420476
216 1 15.940653 9.901823 14.915865
217 1 5.532380 8.387937 22.773330
218 1 9.608496 24.023269 13.606696
219 1 2.026431 4.393833 24.951384
220 1 0.663260 14.019654 6.042311
221 1 11.861150 4.921151 5.323277
222 1 12.721064 24.839168 18.341751
223 1 21.760782 15.926683 1.974893
224 1 4.697625 32.217403 31.878977
225 1 20.786392 8.468292 11.130886
226 1 25.100325 13.291403 27.733450
227 1 5.491269 19.089100 26.168725
228 1 12.119886 2.493119 21.199340
229 1 23.341520 22.983729 33.494197
230 1 32.404285 17.186297 15.080845
231 1 31.600821 18.935307 24.110406
232 1 30.979360 18.260627 4.924477
233 1 32.600230 13.258784 26.045654
234 1 19.995186 18.737661 11.529695
235 1 17.558993 6.523351 17.649977
236 1 23.247612 9.643623 1.152678
237 1 5.752764 32.841240 23.621928
238 1 12.973974 5.442979 0.502355
239 1 15.866117 2.856884 6.266210
240 1 22.344017 10.066563 12.939199
241 1 12.112139 25.145840 22.422722
242 1 10.714662 21.082173 5.198496
243 1 13.107443 31.076692 32.028498
244 1 11.449030 25.947406 26.339250
245 1 20.156856 25.406159 16.914320
246 1 10.611007 0.945475 5.042492
247 1 9.869304 14.698287 27.502478
248 1 11.773139 15.071940 20.745209
249 1 23.811518 24.615013 15.145137
250 1 9.481362 20.398389 20.012522
251 1 5.191023 32.982665 32.164476
252 1 22.876572 21.936450 0.184429
253 1 13.464502 6.480451 25.944252
254 1 6.974571 10.065021 7.362205
255 1 15.163877 13.136528 18.101718
256 1 10.825116 8.906324 13.732138
257 1 23.386672 31.272808 26.063758
258 1 16.756235 23.639812 11.804119
259 1 18.911188 30.702763 22.181190
260 1 33.393415 20.169446 32.734533
261 1 9.672209 17.321004 2.183853
262 1 6.556637 7.039059 5.888830
263 1 16.510094 18.414228 17.827374
264 1 12.229743 20.584847 7.403042
265 1 25.449553 18.824940 25.034258
266 1 7.159123 18.215893 29.308149
267 1 17.875149 9.775514 22.674628
268 1 0.598498 7.828633 23.534325
269 1 12.133837 30.309416 10.512884
270 1 4.184371 8.872755 7.271011
271 1 32.589329 21.965822 18.898946
272 1 28.985532 26.200749 6.254229
273 1 6.607635 29.429742 27.112977
274 1 27.741197 28.932582 5.662385
275 1 10.987546 17.195928 31.698552
276 1 10.085077 32.163236 19.928717
277 1 9.182067 8.255166 19.722713
278 1 23.324360 23.258269 9.306480
279 1 14.325693 0.801243 28.912655
280 1 31.702110 4.245789 8.705860
281 1 16.957070 3.221814 21.695977
282 1 15.352415 27.625677 5.121323
283 1 29.193495 30.304919 21.980227
284 1 23.360122 6.796167 28.078541
285 1 22.877876 8.305747 25.374297
286 1 27.982247 13.238860 3.242240
287 1 23.067322 12.835514 23.876981
288 1 27.932293 10.077144 4.562213
289 1 26.190210 31.043310 8.086729
290 1 32.028961 28.621763 10.605082
291 1 11.969281 26.135238 33.147886
292 1 13.810192 19.186346 33.554112
293 1 33.480943 27.733972 29.996387
294 1 6.592650 20.480774 22.496610
295 1 30.311418 20.767471 1.319513
296 1 31.997629 25.109074 0.871518
297 1 13.008765 30.535255 23.576897
298 1 15.045993 25.418038 30.606342
299 1 12.908158 9.825553 11.629643
300 1 11.763042 19.545477 31.448951
301 1 13.116812 13.904485 16.195358
302 1 28.049841 31.046480 3.883318
303 1 2.619587 25.891073 26.662971
304 1 30.078918 0.651345 25.302070
305 1 6.311005 19.582967 16.803251
306 1 12.148569 29.233272 0.797420
307 1 10.880644 22.750130 22.055772
308 1 5.130037 31.023991 4.632109
309 1 17.310361 20.347122 16.772062
310 1 25.770406 4.293122 26.530401
311 1 27.852233 3.552509 2.203215
312 1 30.755045 12.910770 28.919339
313 1 32.496694 18.056584 19.277994
314 1 23.409545 20.443670 11.698943
315 1 20.983985 1.203067 4.012077
316 1 30.055650 8.011165 27.939675
317 1 33.588809 26.329427 1.868691
318 1 23.917604 3.307140 29.403526
319 1 22.798202 20.852726 19.067386
320 1 28.300722 31.248875 1.863412
321 1 20.307332 31.996931 2.786734
322 1 24.131949 24.368800 22.971898
323 1 17.388140 19.730076 30.374477
324 1 32.069014 33.442477 10.688626
325 1 7.547066 20.511252 5.969385
326 1 2.222435 26.243648 21.049178
327 1 7.032486 5.992542 2.620223
328 1 32.004056 22.140903 16.911086
329 1 14.116809 30.257834 6.406792
330 1 5.123409 6.582358 0.642001
331 1 17.599964 2.668383 8.182797
332 1 20.757812 11.165434 3.750808
333 1 23.498621 8.313840 2.110823
334 1 1.341697 16.632323 28.038478
335 1 11.950920 1.067338 5.007370
336 1 9.496291 7.910873 21.445885
337 1 14.238604 30.608299 14.596034
338 1 6.670284 25.921113 33.201671
339 1 22.072429 24.268660 13.047490
340 1 22.118940 5.626962 28.648489
341 1 14.983141 23.378491 13.078503
342 1 17.416148 6.016537 26.185724
343 1 29.435429 6.427523 7.064661
344 1 13.934312 20.273387 7.201451
345 1 17.803425 33.421989 8.514390
346 1 33.624021 2.765005 20.195286
347 1 4.723831 6.461459 22.083569
348 1 29.915758 11.340099 25.996046
349 1 27.484373 16.164891 11.861159
350 1 29.647290 15.186890 5.882667
351 1 33.593945 26.395444 13.649184
352 1 17.993342 28.359939 19.894563
353 1 27.252193 17.892058 29.153170
354 1 7.416984 15.268427 32.590360
355 1 13.623630 24.041827 0.816195
356 1 22.595653 17.766099 5.590293
357 1 21.669838 24.664693 21.902060
358 1 24.210090 26.529484 14.575357
359 1 27.180181 27.954422 25.104686
360 1 1.481475 11.535073 7.923759
361 1 4.824363 26.572692 15.271202
362 1 25.525563 6.391709 30.469988
363 1 14.522843 10.507601 12.653724
364 1 26.513725 17.472717 10.149082
365 1 5.401930 21.671351 31.025898
366 1 21.309118 23.475912 15.520944
367 1 18.656435 12.990491 25.035919
368 1 31.660459 27.573658 23.046789
369 1 28.393448 33.298918 7.401307
370 1 29.974660 6.425484 0.813714
371 1 3.368054 17.589429 0.655773
372 1 29.114275 17.235723 20.431915
373 1 6.752500 32.042218 24.635128
374 1 1.740188 2.610342 21.773378
375 1 21.321084 26.395796 13.808116
376 1 19.214447 23.151319 13.980019
377 1 17.237426 6.117298 29.726631
378 1 15.713990 32.920616 1.441533
379 1 5.437902 10.584473 21.250797
380 1 14.851649 18.213075 23.255556
381 1 13.430280 6.813966 8.804471
382 1 17.285654 8.477857 14.541628
383 1 18.162447 21.918941 21.210162
384 1 6.340970 24.401406 30.400800
385 1 31.831269 21.781169 31.528866
386 1 29.266003 31.785667 27.033186
387 1 1.792898 30.743212 29.278781
388 1 13.620961 30.169221 15.963335
389 1 5.117109 2.932629 27.749713
390 1 12.830624 6.174130 11.761829
391 1 1.719560 13.644252 32.382975
392 1 18.109159 24.007350 6.093641
393 1 31.544388 30.969487 16.332344
394 1 20.473030 16.012518 4.837664
395 1 30.930359 13.887488 16.198561
396 1 21.273857 20.607127 4.555450
397 1 11.027527 3.716361 25.449541
398 1 9.156399 21.845998 33.598544
399 1 1.797439 18.318085 31.844598
400 1 18.624091 27.055350 16.140494
401 1 7.133682 0.086305 0.975819
402 1 2.674437 9.353043 24.138579
403 1 7.617816 10.714107 4.930950
404 1 29.354429 20.896305 15.293947
405 1 9.421058 18.693390 24.382773
406 1 27.040760 14.304248 13.905028
407 1 6.975475 9.725787 6.053029
408 1 6.614509 18.195594 18.292273
409 1 11.269409 4.278221 11.914368
410 1 25.921681 10.781390 15.792895
411 1 12.383857 26.871835 32.544633
412 1 7.033234 29.238321 16.212451
413 1 0.441103 20.391668 29.844752
414 1 8.119869 11.684086 4.520737
415 1 33.147626 23.149877 30.116560
416 1 0.743523 2.896180 27.305127
417 1 19.120931 31.042279 1.999281
418 1 10.624838 4.594088 15.004627
419 1 25.331255 12.610641 18.066808
420 1 30.339385 15.100293 9.504359
421 1 5.046320 25.222983 12.182501
422 1 6.353850 33.413140 9.448568
423 1 19.010486 14.806464 16.515156
424 1 9.851031 32.732537 8.568298
425 1 8.948945 27.339290 2.111377
426 1 16.302717 0.588785 16.117223
427 1 31.352266 13.527647 5.420106
428 1 8.144275 29.115550 19.668687
429 1 32.373639 18.076144 27.688785
430 1 19.843319 29.419527 14.850866
431 1 18.383086 6.356960 19.355782
432 1 20.413584 12.908488 14.379214
433 1 25.054587 7.655634 24.680430
434 1 15.237137 33.467762 15.658107
435 1 12.741092 6.932444 9.750996
436 1 1.321299 24.384093 24.199526
437 1 26.237960 8.996301 7.022938
438 1 4.401926 29.502772 18.605870
439 1 24.233563 13.272909 0.261568
440 1 10.261525 11.428625 13.657265
441 1 14.535209 9.087784 31.460773
442 1 15.795128 0.780497 16.613833
443 1 28.512775 8.360232 10.611711
444 1 12.812872 9.583536 30.863062
445 1 14.173765 5.515797 14.012575
446 1 23.891087 27.656050 18.744537
447 1 15.353245 23.449295 4.365328
448 1 1.408404 9.300050 17.326485
449 1 26.763639 20.273108 33.250520
450 1 16.868301 7.046792 9.780460
451 1 21.202368 21.469670 6.171574
452 1 4.637704 21.961529 31.157841
453 1 21.188750 7.379161 2.266003
454 1 17.317051 6.488351 30.970393
455 1 24.804424 13.980446 5.652617
456 1 17.224435 12.017326 22.169926
457 1 10.380425 8.844891 5.961977
458 1 1.058891 7.391600 26.813051
459 1 4.332557 10.473802 31.134125
460 1 13.753612 18.108662 5.892087
461 1 9.872820 3.234274 3.280898
462 1 8.361466 17.381524 2.717675
463 1 28.329494 12.357876 31.708916
464 1 23.143184 0.380232 13.862916
465 1 32.019838 17.045436 22.250180
466 1 31.826849 20.223081 6.758820
467 1 12.959128 17.394929 18.119603
468 1 2.581121 15.187524 11.994360
469 1 5.196487 15.837669 30.100998
470 1 16.007278 30.114945 17.000051
471 1 2.354530 12.381243 1.654616
472 1 8.267870 25.562194 21.906455
473 1 4.015692 7.548792 6.161980
474 1 31.534555 33.288320 26.252809
475 1 9.138599 6.849817 9.142670
476 1 2.117932 19.130224 13.800684
477 1 9.920260 26.726463 33.258456
478 1 19.199668 22.804665 3.199414
479 1 11.664988 6.054377 17.299305
480 1 31.057620 24.676009 17.746529
481 1 12.462016 10.585673 21.964597
482 1 24.148319 6.120405 19.815680
483 1 27.085213 2.402815 32.691001
484 1 22.117094 20.146929 1.599861
485 1 33.198027 31.582505 9.225603
486 1 2.505400 31.696662 27.035524
487 1 10.086682 12.963891 2.193218
488 1 8.557870 15.370474 22.006388
489 1 3.052583 6.101831 2.378591
490 1 19.139757 14.037636 12.900276
491 1 30.262810 4.310471 28.370562
492 1 30.955775 14.395454 17.634390
493 1 10.885555 19.865025 28.029759
494 1 25.542291 5.346876 33.402220
495 1 5.783547 6.601770 2.332236
496 1 16.753501 31.978306 17.688118
497 1 3.905932 26.482456 32.432887
498 1 29.215355 29.901363 27.150487
499 1 30.632663 17.636192 9.479696
500 1 6.387780 23.918908 24.875747
501 1 5.026430 22.659127 26.486876
502 1 6.916569 4.230800 24.953225
503 1 8.531219 4.659337 23.412988
504 1 17.048506 17.252486 1.184463
505 1 19.018959 18.139220 29.149533
506 1 30.053553 16.100715 25.467459
507 1 26.181497 0.381760 18.116183
508 1 29.157617 25.727413 32.254595
509 1 5.283176 26.793631 25.754493
510 1 3.586158 13.404280 31.311334
511 1 3.005121 30.763050 15.624079
512 1 3.469479 2.496516 7.264253
513 1 29.888292 16.608070 20.244997
514 1 21.448164 15.079275 10.598565
515 1 12.468846 8.165015 20.560635
516 1 13.491174 6.178230 9.836789
517 1 7.963204 4.729247 25.182776
518 1 7.417016 9.049713 29.880461
519 1 30.364651 21.376699 30.600188
520 1 25.806088 19.067176 7.741309
521 1 25.128857 24.627995 1.861860
522 1 16.415574 3.804624 15.781630
523 1 21.109409 16.410948 16.345665
524 1 17.979002 29.817260 23.893637
525 1 19.822096 20.627007 27.700036
526 1 4.973060 26.352076 23.263994
527 1 10.781557 29.401250 8.782529
528 1 11.668070 12.451855 7.865639
529 1 32.752480 23.967938 25.363698
530 1 21.722842 4.404230 2.337664
531 1 11.533303 7.913748 18.092173
532 1 28.144721 31.779039 4.527468
533 1 24.769545 10.600717 22.835110
534 1 31.632374 18.668078 33.305366
535 1 1.576111 26.993161 26.370076
536 1 22.264966 21.581697 18.118191
537 1 21.731065 8.557895 26.230268
538 1 4.651632 30.822321 22.317861
539 1 16.598641 29.008346 7.543976
540 1 21.685800 3.587023 10.706035
541 1 3.013003 7.467130 12.349690
542 1 20.724760 28.604837 25.402042
543 1 4.204511 21.312660 13.158238
544 1 18.045660 17.879840 3.816644
545 1 7.412725 23.401849 2.740629
546 1 17.587609 1.017669 23.081397
547 1 14.280475 15.562074 20.846875
548 1 29.987686 30.581836 18.819370
549 1 12.031098 6.203172 2.925382
550 1 30.495203 1.237000 5.343937
551 1 5.913140 23.852730 29.008873
552 1 19.934904 8.567906 4.178985
553 1 28.367123 21.384703 31.833134
554 1 4.825903 19.027893 8.260738
555 1 4.122048 25.837484 24.506283
556 1 23.256771 25.142489 3.503004
557 1 14.998793 30.125174 15.246371
558 1 15.339727 31.038950 32.542384
559 1 19.646597 18.058244 1.049052
560 1 10.543196 29.049922 25.677143
561 1 17.855700 23.027554 25.395508
562 1 3.158814 7.848006 25.110785
563 1 6.447107 25.715793 27.106062
564 1 17.109403 22.961361 7.140986
565 1 11.329819 3.680031 5.544482
566 1 25.383681 29.389981 13.759931
567 1 20.910049 19.273512 17.816567
568 1 1.225805 19.024294 20.731284
569 1 29.408011 7.909512 22.721780
570 1 7.425882 16.607646 32.682498
571 1 28.272137 15.457034 16.555882
572 1 28.729977 10.000073 0.883004
573 1 14.373276 23.401310 12.114846
574 1 5.699693 28.604912 21.646492
575 1 22.780008 0.815761 22.748630
576 1 14.759585 31.586441 11.451507
577 1 11.964378 6.363054 18.379011
578 1 21.498691 15.653981 1.549086
579 1 21.623754 30.495862 6.560070
580 1 14.706403 14.907892 30.870158
581 1 13.667013 31.098546 4.373341
582 1 7.996177 22.228769 14.297224
583 1 32.492263 19.511960 20.565249
584 1 7.987969 12.802776 4.419590
585 1 4.433581 22.271173 12.011614
586 1 9.072478 23.264095 20.118378
587 1 11.204967 20.898582 23.838310
588 1 22.475302 12.375156 31.128096
589 1 26.094442 33.243775 10.115401
590 1 25.468140 28.564824 7.133884
591 1 26.019422 24.200847 31.544256
592 1 5.953038 10.092603 10.607547
593 1 22.531219 11.177151 27.049371
594 1 33.144977 5.973260 29.922157
595 1 11.793103 9.335489 9.873335
596 1 26.277434 2.658568 31.338619
597 1 30.972232 26.050836 9.367369
598 1 29.970050 9.963990 6.336042
599 1 31.679202 4.057094 17.575045
600 1 3.527521 11.341347 29.158839
601 1 8.194952 32.792879 29.088657
602 1 21.650556 3.983207 11.149621
603 1 26.889464 14.745288 2.227673
604 1 20.704072 1.937496 6.914419
605 1 28.758350 19.806507 4.640810
606 1 5.883704 9.768223 30.424538
607 1 28.872432 0.031679 20.432472
608 1 26.508824 21.384799 32.117770
609 1 24.955288 8.888917 15.229201
610 1 12.393281 5.873598 13.030514
611 1 25.231961 6.261063 7.381450
612 1 13.064797 25.928111 13.293900
613 1 18.954088 26.513385 16.377955
614 1 28.104300 7.358657 11.925923
615 1 30.053902 29.802484 26.870408
616 1 1.288789 31.751593 1.870077
617 1 19.077186 5.890412 31.376437
618 1 7.323610 1.283847 10.562156
619 1 13.223091 0.717775 22.246903
620 1 9.153198 21.243098 11.201367
621 1 32.514524 5.390018 20.383009
622 1 24.766128 14.897314 2.707729
623 1 20.922020 5.977405 10.108714
624 1 28.340926 30.605985 28.975189
625 1 27.123751 0.518055 13.674001
626 1 6.581744 22.285515 24.406638
627 1 29.666275 24.654696 10.708537
628 1 16.588533 22.642713 21.023207
629 1 16.157735 2.812925 13.398279
630 1 10.315192 3.460443 18.109529
631 1 5.064758 8.528107 20.107168
632 1 13.158402 11.759537 4.512208
633 1 8.602415 17.646196 25.094992
634 1 27.470174 11.137319 32.000452
635 1 0.414241 5.195556 23.755110
636 1 1.695030 23.371941 15.967152
637 1 31.015738 14.759981 15.318711
638 1 12.483882 20.925040 29.992968
639 1 25.606578 13.170143 2.211256
640 1 32.847656 26.982439 4.435861
641 1 4.866065 19.793377 9.525188
642 1 14.582071 23.660044 15.188066
643 1 26.051888 30.330207 12.858253
644 1 6.171025 33.503247 6.314930
645 1 15.562724 7.509447 15.855056
646 1 9.926698 20.423484 24.668185
647 1 10.697371 21.085799 0.335800
648 1 20.221992 12.842908 3.270645
649 1 9.079123 21.710608 30.813717
650 1 29.655124 5.150003 15.873588
651 1 26.991505 29.580842 16.405288
652 1 26.594090 14.234386 23.965926
653 1 4.520205 31.520211 16.323076
654 1 0.861320 31.354111 7.945349
655 1 25.890267 18.120706 18.956067
656 1 12.888333 4.690579 4.156990
657 1 0.928129 1.742953 30.923189
658 1 16.201741 7.423509 22.688828
659 1 17.217698 30.390799 14.720614
660 1 17.729376 23.170633 19.930371
661 1 3.118030 6.242345 13.329957
662 1 3.866547 33.178666 18.195427
663 1 11.896722 28.674534 27.682817
664 1 19.717712 2.469388 20.629133
665 1 21.760935 22.982114 33.482916
666 1 12.532256 26.898149 11.312902
667 1 31.141407 19.639225 6.192335
668 1 31.428699 1.977176 18.211666
669 1 16.980154 14.871654 6.795415
670 1 8.842644 23.081101 4.618380
671 1 25.988111 22.622532 0.665915
672 1 8.122909 20.366734 27.671747
673 1 0.787040 20.740163 28.169594
674 1 7.924819 20.291018 4.809445
675 1 16.400178 32.176566 2.016265
676 1 28.226959 23.284351 27.559010
677 1 3.848224 22.336413 13.971101
678 1 4.837023 8.844750 18.477802
679 1 1.979073 17.882492 7.751880
680 1 2.653657 6.412625 28.545709
681 1 8.199249 7.095163 20.538540
682 1 6.032325 8.737676 19.394117
683 1 32.906751 10.370095 7.268766
684 1 19.706092 4.411627 25.738354
685 1 32.120421 31.805223 20.673309
686 1 12.358409 4.272930 25.112252
687 1 12.870500 0.851567 13.488496
688 1 1.813159 6.485881 29.747761
689 1 16.901618 24.277943 13.191242
690 1 31.049381 8.271506 18.307502
691 1 19.194858 28.566448 26.383368
692 1 19.143455 14.541123 19.817915
693 1 27.477704 10.089487 17.993798
694 1 23.482741 20.838319 30.586357
695 1 33.628629 11.804995 23.668767
696 1 2.316795 25.523026 30.991735
697 1 7.910942 33.200809 19.034313
698 1 11.955174 25.421158 5.679643
699 1 30.927088 10.722776 23.973170
700 1 8.548155 32.860183 15.272754
701 1 21.566998 19.723757 22.749930
702 1 30.504841 10.068159 26.608941
703 1 30.746033 20.953736 9.157934
704 1 5.845096 11.477663 24.313316
705 1 18.208488 23.387312 24.305255
706 1 2.746542 8.102134 28.202510
707 1 31.205793 16.309049 5.112601
708 1 25.291315 4.083485 22.166645
709 1 7.925487 31.386334 24.395583
710 1 13.147084 24.740757 14.032487
711 1 25.510375 9.142307 18.365952
712 1 28.957683 22.691709 1.395721
713 1 8.872684 25.396435 27.618843
714 1 11.661934 17.121434 30.196484
715 1 29.015730 4.382669 25.710872
716 1 1.053981 29.940552 1.344489
717 1 32.073610 3.189860 9.249432
718 1 17.584298 30.316776 22.213704
719 1 29.677973 0.785905 26.600189
720 1 32.195412 25.787521 12.892311
721 1 6.654018 2.871111 7.780026
722 1 8.894015 14.711020 16.659061
723 1 12.361776 11.266380 6.242291
724 1 15.313775 19.053929 4.253134
725 1 33.137038 27.835244 11.334342
726 1 1.061437 9.449821 23.388597
727 1 3.636680 7.714907 22.206178
728 1 13.517542 25.532210 6.417877
729 1 30.817216 12.844302 30.063967
730 1 10.279656 29.211041 26.795143
731 1 0.829715 21.742426 32.033092
732 1 16.396522 28.640407 8.581680
733 1 27.497973 17.455646 21.285218
734 1 8.293973 11.945558 25.388106
735 1 15.172594 2.197926 11.765614
736 1 0.940370 22.022013 18.642466
737 1 3.056613 32.733079 31.333139
738 1 18.142856 25.646025 30.954396
739 1 33.173449 12.886628 3.316360
740 1 3.521721 17.957476 29.989268
741 1 22.878153 1.382058 18.026594
742 1 1.960660 21.010075 1.354316
743 1 33.060616 1.375246 10.603452
744 1 2.434111 10.968275 2.735133
745 1 0.327796 22.946416 18.357964
746 1 29.754312 22.482498 12.987975
747 1 9.702248 7.557217 8.950622
748 1 5.828293 13.170762 29.201753
749 1 4.732489 0.815614 10.848980
750 1 7.797588 33.231160 33.531416
751 1 8.107495 21.386552 25.482864
752 1 5.417111 13.356334 2.976921
753 1 20.110914 24.752867 2.158783
754 1 18.229487 25.671666 2.764304
755 1 1.079460 2.498819 27.429533
756 1 27.159035 8.573426 30.118232
757 1 4.157946 5.738247 31.708103
758 1 1.795736 16.431424 7.245577
759 1 27.453026 33.583420 14.650148
760 1 23.773729 20.205185 16.944010
761 1 28.069786 31.954491 0.008528
762 1 29.349353 25.157768 30.426937
763 1 21.170017 22.440808 15.176402
764 1 29.548076 9.882429 9.622512
765 1 7.226331 21.399675 30.196440
766 1 28.881537 15.646612 11.889505
767 1 17.082061 11.963251 19.665473
768 1 13.498660 16.398315 30.204928
769 1 16.756456 1.750956 18.098335
770 1 31.953521 29.848944 31.469394
771 1 7.748145 31.176476 29.929596
772 1 10.841207 29.289373 13.179887
773 1 2.483579 1.005312 29.434440
774 1 16.439069 2.172006 29.330343
775 1 30.918465 17.103608 16.557197
776 1 1.358792 32.856658 4.663758
777 1 20.186784 32.233387 17.843367
778 1 30.339132 28.561907 7.117941
779 1 11.225054 6.361067 33.287090
780 1 33.157312 4.091756 31.287966
781 1 22.286998 28.574437 26.880046
782 1 11.795868 15.075958 21.280699
783 1 10.375945 18.029499 20.747128
784 1 27.475404 11.841205 16.329024
785 1 14.639916 27.104273 6.548554
786 1 22.043576 18.916004 0.353284
787 1 17.277592 3.129123 15.858253
788 1 26.379085 8.921060 32.306870
789 1 28.231929 18.527926 21.914542
790 1 21.383892 1.983009 23.783376
791 1 31.956387 9.134237 24.372186
792 1 6.443756 16.357622 1.977879
793 1 12.889097 16.231401 15.511362
794 1 9.419468 5.597357 3.185612
795 1 5.827045 1.985422 9.332765
796 1 9.446091 23.156901 18.969519
797 1 18.716809 0.090539 19.385340
798 1 8.005059 2.336765 7.088791
799 1 19.084689 30.357360 18.082800
800 1 13.935919 20.557445 20.829295
801 1 11.749754 25.405402 29.603409
802 1 13.217977 1.478430 20.832239
803 1 12.467876 9.306079 4.489673
804 1 19.597237 30.939638 17.208189
805 1 16.153582 13.101807 20.871147
806 1 12.077613 32.576662 10.016344
807 1 18.578883 25.236864 4.912723
808 1 4.044698 12.060339 19.368650
809 1 22.881587 28.786498 24.845109
810 1 2.867351 9.890593 17.734615
811 1 24.936607 29.578757 5.373838
812 1 3.457161 25.708110 18.985260
813 1 5.542911 3.289207 28.495854
814 1 25.082218 5.239780 7.883632
815 1 19.111904 14.383641 30.488683
816 1 5.583862 4.383083 32.055533
817 1 29.524602 21.781321 5.301021
818 1 28.035269 0.663312 17.760084
819 1 14.974857 29.390055 14.491158
820 1 2.489534 22.310103 28.209063
821 1 6.130777 15.802700 17.158217
822 1 5.564126 20.937868 11.898154
823 1 17.096490 11.381790 23.217374
824 1 27.535431 17.204712 10.618115
825 1 8.235923 5.966745 26.660950
826 1 21.577689 16.420747 4.804041
827 1 17.106639 25.755765 1.144064
828 1 20.157627 15.028116 9.648034
829 1 26.038084 14.659272 26.135649
830 1 1.473230 9.388108 1.150223
831 1 18.781907 32.526221 21.856908
832 1 10.889820 6.926628 11.531230
833 1 25.311667 17.874929 31.328105
834 1 18.009417 30.637234 30.984040
835 1 9.051387 24.825622 7.712477
836 1 6.742971 21.593868 10.309572
837 1 12.282440 18.690595 2.869172
838 1 23.021707 28.273112 31.246520
839 1 15.149689 9.027880 16.380065
840 1 30.128977 20.294684 6.186436
841 1 10.131988 11.301178 23.889539
842 1 9.085544 21.247210 20.347122
843 1 27.941019 28.773187 18.422248
844 1 25.717678 27.497031 23.043520
845 1 16.325122 33.359009 27.908656
846 1 10.943509 21.390165 4.418684
847 1 7.184292 15.283594 20.572176
848 1 18.410571 6.612742 2.398216
849 1 31.980417 0.262970 13.033378
850 1 8.690356 33.512475 22.450882
851 1 22.851161 5.502155 10.314892