ITEM: TIMESTEP
0
ITEM: NUMBER OF ATOMS
2847
ITEM: BOX BOUNDS pp pp pp
0.0 33.668230
0.0 33.668230
0.0 33.668230
ITEM: ATOMS id type x y z vx vy vz fx fy fz
1 1 30.247829 10.580439 21.514595 -0.03552548 0.00948558 0.02548856 -0.00006107 -0.00005594 -0.00009137
2 1 18.292317 25.039144 4.155308 0.00386562 -0.00434797 -0.01700018 -0.00004030 -0.00010619 -0.00001192
3 1 9.852313 24.630490 10.899338 0.00378876 0.01595440 0.02362249 0.00015163 -0.00016848 -0.00011064
4 1 25.447690 14.517655 23.688138 0.01371471 -0.06343493 0.03280620 2547.34514981 -639.28276404 642.97846124
5 1 13.103899 3.859403 13.259456 0.00574794 -0.00627832 -0.03605212 0.00003265 0.00017589 0.00003823
6 1 18.113893 28.546070 25.617069 0.01294477 -0.03255058 -0.02809571 -6267.04387046 18892.37150301 -2052.22573518
7 1 5.490922 32.630496 12.101818 0.01863482 -0.03840070 0.00022423 -0.02176232 -0.14025050 -2.45894462
8 1 31.142063 13.185859 26.890195 -0.01374788 0.02185951 0.02190267 0.00000724 0.00002692 0.00002989
9 1 10.068055 16.332839 29.723446 0.05649055 0.00489143 -0.00091003 0.00024289 -0.00004785 0.00006684
10 1 23.579493 16.963953 22.362003 0.03010688 0.01214708 0.03405386 -0.00139979 0.00173572 -0.00099373
11 1 18.953499 25.909323 19.188339 -0.02591876 -0.00903343 -0.00379073 0.00011049 -0.00009172 -0.00011291
12 1 30.324723 21.897022 11.595319 -0.04931435 -0.01844705 0.02952958 0.00020569 -0.00004493 -0.00009534
13 1 0.319761 24.212945 21.936582 -0.04171657 -0.02746413 -0.02549606 0.00013301 0.00003570 0.00018542
14 1 9.509501 7.674850 8.083953 -0.02076649 0.04021117 -0.02470487 -0.00003578 -0.00002104 0.00013010
15 1 19.648105 21.599492 32.026060 -0.02892797 -0.01076130 0.04379322 -0.00004336 0.00000032 0.00025927
16 1 12.493581 18.945217 24.101492 0.01768387 0.01542793 0.01513511 -0.00006278 -0.00005734 -0.00004404
17 1 25.163416 26.007932 14.178258 -0.02043269 -0.02114241 0.02294917 -0.00001164 0.00005564 -0.00006888
18 1 26.306168 7.063063 23.334953 -0.05468455 0.02410781 0.00727522 -0.00012742 -0.00017642 -0.00003029
19 1 22.448222 9.455469 19.787301 0.02893427 -0.04201950 0.02599907 -0.00004883 -0.00000766 -0.00001532
20 1 20.122199 29.493967 13.281305 -0.00752189 -0.01069522 -0.03427321 0.00005149 -0.00002042 -0.00008576
21 1 14.128954 24.194888 22.466519 0.06146312 -0.02440791 -0.00665162 -1009467.05287123 726257.92571663 -120375.17179225
22 1 4.194641 14.777364 13.619699 0.00444608 -0.01801827 -0.02243242 -0.00001617 0.00004707 0.00010470
23 1 28.723021 28.943606 29.035880 0.02045063 -0.01742968 -0.02300200 0.00003725 0.00000591 -0.00002705
24 1 10.648538 28.027053 23.270675 0.03883118 -0.01264550 0.04332302 -0.00015761 0.00023890 0.00002011
25 1 24.118130 12.620923 7.460870 0.01637062 -0.01923910 0.01752640 -0.00003979 0.00013129 0.00002737
26 1 11.250278 17.380255 10.362631 -0.03516600 -0.01439718 0.00961247 -0.00002667 -0.00007192 0.00001494
27 1 23.244557 16.393982 5.762957 -0.01032801 0.00092506 -0.02999981 -0.00007807 -0.00015819 0.00012632
28 1 7.667634 26.171286 20.778727 -0.01527532 -0.00649001 0.02816502 177.04511453 -172.32444016 294.34576639
29 1 25.808350 22.701598 6.501410 0.02806522 0.01020427 -0.04172811 -0.00020623 -0.00024281 0.00026026
30 1 12.132249 30.747024 10.998908 0.03643197 0.01264119 -0.00936535 0.00020001 0.00007216 -0.00006581
31 1 17.299711 18.230149 3.005817 -0.04534747 0.01602938 -0.01189587 0.00006539 0.00016103 0.00001750
32 1 21.978986 24.417643 23.421811 -0.03366841 -0.00703752 0.03014421 0.00012764 -0.00001338 -0.00022453
33 1 10.584496 11.339939 25.562104 -0.02278660 -0.02873214 0.01372631 0.00000599 -0.00001816 -0.00019917
34 1 14.853474 3.511724 31.332728 -0.02110099 -0.00824597 -0.03400354 0.00001957 -0.00002797 0.00014583
35 1 22.623536 10.892767 4.576219 0.01938886 -0.02766609 -0.00207416 0.00014008 -0.00012314 0.00000350
36 1 5.508535 19.542870 32.617493 -0.00966411 -0.02293347 -0.00281173 -0.00022705 -0.00006443 -0.00012905
37 1 13.115049 23.981203 21.082589 -0.01642624 0.04719852 0.03324774 15.46860897 3.25997870 21.11373722
38 1 29.299610 6.752733 14.477414 0.01297270 -0.01617879 -0.04051782 0.00007129 0.00016560 0.00000135
39 1 3.465398 6.476260 11.444683 -0.00409041 0.02964830 0.01774857 -0.00003914 -0.00008100 0.00006339
40 1 33.420635 0.776647 22.694212 0.01110447 -0.00760320 -0.02846838 -0.00006414 -0.00008619 0.00002538
41 1 28.219113 32.582654 32.165911 0.02216502 -0.00649257 -0.01810056 -0.00000439 0.00012358 -0.00012733
42 1 3.276172 21.001113 18.349247 -0.00945305 0.01695394 0.00503584 -1219.52506096 3381.46546249 91097.51570972
43 1 23.744488 12.942234 3.748870 -0.00801131 -0.02956757 -0.02358170 -0.00006376 0.00000938 0.00007726
44 1 1.396085 0.396540 30.061786 -0.00731003 0.00439126 0.05091516 -0.00004953 -0.00005836 -0.00006508
45 1 13.057175 12.471453 14.674930 -0.00495894 -0.09378551 -0.00883321 -0.00011319 0.00006687 -0.00014485
46 1 22.188637 32.807963 12.791632 -0.01890685 -0.01085335 -0.01456549 0.00009299 0.00008664 0.00002963
47 1 33.464389 32.229058 33.163924 -0.00806118 -0.01387457 -0.00611163 -29.61812309 -24.87487035 -20.66522617
48 1 6.553568 25.592034 31.660237 -0.01096623 0.02049051 -0.01171041 0.00003575 -0.00004539 -0.00010050
49 1 27.374743 0.112602 20.776133 0.04415409 0.00180424 -0.07148610 -0.00011631 0.00012196 -0.00012522
50 1 14.427554 1.986026 8.835113 0.06966352 0.00452494 0.00965336 1525.29190570 -4263.56027172 2245.14005209
51 1 12.395227 4.720479 29.589656 -0.01288237 0.00437213 0.00905535 -0.00006095 -0.00004308 -0.00002320
52 1 16.215417 27.347314 31.489793 0.00499199 -0.01107819 -0.02735709 0.00007782 -0.00003006 0.00019378
53 1 29.437875 28.611809 11.135424 0.00737683 0.03455801 0.00596488 -0.00002012 0.00005519 -0.00002526
54 1 0.699458 15.997119 24.822726 0.00760712 -0.09264155 0.04525338 0.00003413 0.00008449 -0.00000650
55 1 8.996814 8.503235 16.595037 0.01012303 0.01229565 0.05135759 19.26104525 -9.94005604 89.43945201
56 1 19.255352 21.139284 23.180506 -0.02539659 0.05002099 0.05287153 0.00013964 -0.00005264 0.00002590
57 1 30.441199 16.202985 31.134191 -0.02110598 0.03354911 -0.03268699 0.00016620 0.00003585 -0.00000212
58 1 28.521847 29.671576 16.817879 0.07656256 0.00254623 0.01131224 -224.60869250 867.49810145 -146.04263015
59 1 20.166934 16.988922 32.903014 -0.00780961 -0.01909518 -0.03959975 -0.00002871 0.00014506 -0.00011003
60 1 5.531075 2.800727 17.286031 0.05778892 0.00952867 -0.02812035 0.00005333 -0.00006219 0.00007267
61 1 21.613308 23.168551 29.887331 0.03975683 -0.01283099 0.04454949 -0.00020498 0.00010207 -0.00002694
62 1 12.969181 0.841049 27.257174 -0.00113883 0.01225509 0.01222040 9.49482183 0.68945683 6.51283986
63 1 15.088418 32.350815 30.666462 -0.01288344 -0.02016717 0.01879116 0.00043480 -0.00042919 0.00076370
64 1 15.889709 7.328059 8.304185 -0.01468667 0.02864332 0.05695277 0.00016603 0.00023446 -0.00008176
65 1 20.750527 1.313595 8.935870 -0.00564018 -0.01867554 -0.03794293 0.00025406 0.00008171 0.00008018
66 1 12.995311 18.400665 26.984258 -0.00413360 -0.01235366 0.01662099 -0.00006477 -0.00003897 -0.00011075
67 1 8.451753 12.271372 33.345994 -0.02857933 0.01728120 0.00918592 -0.00011846 0.00008611 -0.00021903
68 1 11.954613 30.768596 16.534363 0.04154279 0.04253060 0.02930644 -0.00013627 -0.00006103 -0.00005491
69 1 29.358491 10.153130 22.227137 0.01387015 -0.00665299 -0.03012144 0.00016565 -0.00006919 -0.00004712
70 1 10.740071 25.988397 4.979540 -0.06930481 0.00458385 0.01885378 0.00003615 -0.00004783 -0.00003380
71 1 29.718869 8.779908 26.492753 0.01266289 -0.03328495 0.00439641 -0.00010436 0.00003793 0.00009442
72 1 13.962030 33.646390 21.959845 -0.03121015 -0.00464310 0.04553208 -0.00004176 0.00004531 -0.00017480
73 1 5.260553 15.715128 4.564367 0.02732119 0.02335655 0.02530055 0.00017832 -0.00007433 -0.00002545
74 1 23.285176 22.553151 32.618815 -0.06134126 -0.02513939 0.00878112 0.00012605 0.00010679 0.00005683
75 1 14.416470 0.773531 32.182001 -0.01326252 0.05436316 0.02463187 0.00002022 0.00002947 0.00049632
76 1 22.180022 10.838656 30.775808 -0.00038608 0.07828795 -0.05626207 -0.00020179 0.00014166 -0.00009025
77 1 0.953381 8.514993 23.207132 -0.03334524 0.02057395 -0.02295826 0.00002993 -0.00001048 0.00020343
78 1 2.472128 21.788846 25.228835 -0.03301756 0.01916531 -0.00765836 -0.00018794 0.00000264 -0.00010624
79 1 13.550552 14.098515 14.061977 -0.01296490 -0.02350619 -0.03595331 855374.08720319 -7066319.40692491 6177804.51639371
80 1 13.978131 22.960587 20.638282 0.02637165 -0.02583952 -0.01998560 0.06651205 0.54334395 0.80510209
81 1 0.947312 25.276632 21.441717 0.01956864 0.00104296 0.02163196 -0.00003002 0.00024463 0.00006717
82 1 19.391384 19.192330 23.863904 -0.00304317 -0.00229233 -0.01632360 -0.00006243 -0.00008157 0.00012716
83 1 15.659282 24.562187 11.737649 0.03921012 -0.01647652 0.00334378 -0.00012659 -0.00003579 0.00000617
84 1 6.354570 17.925584 11.922934 -0.05124321 -0.02822820 -0.01270288 -32618684.81220429 -54883492.79102559 49075366.08059601
85 1 24.489444 15.051129 25.222065 0.03249504 -0.00710912 0.01173648 4.25049820 -2.36625657 -6.80433181
86 1 20.090044 11.210363 32.473250 0.02214855 0.02512847 0.00744441 0.00017274 -0.00004172 0.00008300
87 1 2.479151 22.215834 12.673187 0.01654605 0.03521090 -0.01443624 1066017.93463654 -269154.66525612 878510.86760855
88 1 8.392769 10.089387 30.456001 -0.01270710 -0.03789664 -0.01694191 55.90410125 -820.32892582 -88.54884377
89 1 20.702034 4.021999 32.502631 -0.01656933 -0.02838653 0.01789891 0.00003496 -0.00009676 0.00012311
90 1 4.540936 9.021356 29.316230 -0.04097899 -0.03769779 0.04232439 -0.00125959 -0.00011743 -0.00036418
91 1 32.075068 19.610210 32.100478 0.00075064 -0.07134471 0.03288689 -0.00016484 0.00003328 0.00016254
92 1 12.547153 15.578085 24.724220 -0.01652440 -0.02229347 -0.00802529 -0.00007082 0.00005821 0.00006088
93 1 10.727290 22.166871 3.685458 0.02410351 0.01699036 -0.03379704 -0.00009242 -0.00011470 0.00003335
94 1 23.988605 4.995731 6.364651 -0.04406594 -0.04991806 0.03402284 0.00001179 0.00004002 0.00014166
95 1 20.518259 21.027790 26.714426 0.00058982 -0.04932976 0.01520827 -0.00014623 -0.00002124 -0.00017952
96 1 4.478868 3.689186 27.409686 -0.01710659 -0.02574182 0.00363775 11042.80054117 -10563.44118806 4657.33204219
97 1 7.940968 14.474935 6.763383 -0.01279419 -0.00216911 -0.01218588 -0.00001810 0.00005246 -0.00009665
98 1 23.937470 26.179580 13.012104 -0.00222851 0.03689455 -0.00801534 -0.00005881 -0.00009866 0.00002608
99 1 16.553569 22.880901 13.754829 -0.03556989 0.05034198 0.00475008 6.11414407 111.53268336 -52.65200344
100 1 18.084686 20.045387 27.712111 0.00921467 0.00426432 0.03546870 -0.00004860 -0.00018776 -0.00002811
101 1 25.049755 27.023431 11.556520 0.01620673 0.00976716 -0.01348913 0.00007522 0.00007168 -0.00003582
102 1 9.710364 32.215306 10.237608 0.00422354 -0.09019878 0.01452607 0.00046930 0.00005590 -0.00031744
103 1 20.341200 14.063297 8.656266 0.04105480 -0.01555992 0.03736934 -0.00001196 0.00000323 -0.00004359
104 1 17.904081 1.818696 14.859685 -0.03816405 -0.05549118 0.00501296 0.00020953 0.00012901 0.00023969
105 1 22.867833 21.234757 0.405635 -0.02315411 0.01442956 -0.01805132 -0.00005616 -0.00007436 0.00002553
106 1 16.296964 18.186746 15.207539 0.03699182 0.02516236 -0.02619609 0.00028940 -0.00015733 0.00037421
107 1 24.587136 0.136869 18.827641 -0.02561567 0.03362711 -0.05159546 -0.00003022 -0.00004115 0.00016221
108 1 29.125857 5.454303 24.851651 0.06792164 0.03849917 -0.00205046 -42281.30389297 -128113.74628109 -129231.22403935
109 1 24.508519 24.504872 3.641553 -0.02619698 0.05000932 -0.02317840 0.00001036 -0.00011875 -0.00007750
110 1 23.393276 8.008819 16.372427 0.02812474 -0.01914445 -0.01274910 -0.00025080 -0.00009344 -0.00012197
111 1 0.197182 5.401870 32.741257 0.01220616 0.03377764 -0.02371532 -0.00010219 0.00001476 0.00017173
112 1 5.734249 12.817486 25.110556 -0.03051207 0.01958376 -0.04923217 -0.00003242 0.00009859 -0.00004298
113 1 0.659765 21.623783 14.960685 -0.02788331 0.04945799 -0.00135957 0.00314473 0.00140216 -0.00533885
114 1 6.864525 19.758685 26.105708 0.01043428 0.00340382 -0.03796098 -0.00003162 0.00003860 -0.00008751
115 1 17.887766 12.366892 14.678444 0.05879324 0.03440191 0.05500131 0.00051316 -0.00026522 0.00005556
116 1 0.822894 3.035360 6.451673 -0.02383526 -0.00385952 -0.00999611 0.00013080 -0.00017009 0.00016261
117 1 18.980450 1.083578 0.020583 -0.07128588 -0.06332486 0.05600071 0.00000409 -0.00003993 -0.00013530
118 1 5.713053 10.798879 7.316388 0.00534521 0.00931374 0.00231561 -0.00020218 0.00004583 0.00007803
119 1 7.288157 9.696457 16.230033 0.01009266 -0.00887202 0.01234516 1.43851121 -1.00443442 0.30753836
120 1 1.690670 8.343008 29.255373 0.00544184 0.01245842 0.00101985 -445610.41781092 -333856.05137552 -1293752.35922262
121 1 30.042828 26.873861 16.767962 -0.03439691 0.01173431 0.07144240 0.00039899 -0.00072821 0.00006539
122 1 33.510578 9.796584 24.607546 -0.01399610 0.01857614 -0.00792490 0.00002038 -0.00001335 -0.00028380
123 1 18.417265 5.682181 25.210688 0.02326494 -0.02507798 -0.03160242 -371.02565113 185.04336682 114.57793081
124 1 26.916381 23.501735 21.164844 0.02666180 -0.02325322 -0.04448685 -0.00008050 0.00014311 -0.00005357
125 1 17.814469 14.774210 26.105561 0.03181964 0.00323686 -0.04514915 0.00009170 -0.00004521 0.00015666
126 1 31.248495 12.965554 31.615044 -0.00839355 -0.00697131 -0.00359462 0.00016518 0.00017986 -0.00003306
127 1 19.293913 28.725848 5.780811 0.00556486 -0.01584107 -0.01725963 0.00000124 0.00011998 0.00012174
128 1 2.357592 1.497413 27.868708 0.06015625 0.04521549 -0.03423143 0.00113682 0.00110071 -0.00009950
129 1 2.950788 25.968457 30.146119 0.00683425 0.01464791 0.00134326 -0.00005518 -0.00008610 -0.00008443
130 1 5.218481 22.535891 4.131509 0.02466074 0.02000425 -0.00890807 0.00002046 -0.00001816 -0.00000614
131 1 13.560508 10.004957 32.039482 0.00183176 -0.00090946 -0.02487254 0.00029629 -0.00002813 -0.00000299
132 1 13.378828 3.093188 2.341374 -0.00938511 -0.02754784 -0.02655327 0.00001735 -0.00002349 -0.00012077
133 1 19.814555 13.029951 0.098348 0.04970200 0.02651369 0.00838869 -0.00026860 0.00006705 -0.00003508
134 1 16.009462 6.570696 18.149509 0.01276766 -0.01881280 -0.01918193 0.00008488 -0.00006473 0.00005408
135 1 29.819955 1.436782 9.922840 -0.00252875 -0.02144406 0.00103775 -0.00008194 -0.00007078 -0.00008724
136 1 33.503592 13.920065 3.445763 -0.01502590 -0.02071839 -0.02857856 5906.58999579 -2008.80358563 20067.45421313
137 1 6.403775 27.000803 26.387703 0.00640515 -0.01887450 -0.01103355 -0.00008210 0.00017513 0.00009957
138 1 31.530780 0.626773 10.086815 -0.01403453 0.00732351 0.01428498 -0.00003810 -0.00005694 -0.00000665
139 1 23.668267 26.906675 26.513249 -0.02218288 0.00843066 0.02249389 4.59827248 -15.08472991 -5.25055419
140 1 24.074103 0.508041 1.056853 -0.01953721 -0.00430447 -0.02305029 -0.00000681 -0.00040153 0.00007282
141 1 31.294039 18.495589 28.646944 -0.03003121 -0.03170473 -0.07117600 -0.00013092 0.00005956 -0.00000264
142 1 26.677475 11.984993 10.813734 -0.00088890 0.01334442 -0.03519040 0.00005691 -0.00010474 0.00002235
143 1 17.425781 4.414362 20.149238 0.02000956 -0.05106149 0.01342978 0.00001143 -0.00035127 -0.00029989
144 1 6.101480 28.225305 29.075184 -0.00254924 0.01901415 -0.04120961 0.00005859 -0.00005093 0.00009878
145 1 6.010768 16.805611 26.441396 -0.01290043 -0.00957539 -0.00273029 -0.00010334 0.00019750 0.00007328
146 1 29.090216 20.955764 22.089342 -0.01711578 -0.04663546 0.06169143 0.00003995 0.00002811 -0.00004422
147 1 4.520882 3.741715 11.592162 0.01113415 -0.01300012 -0.00853126 -0.00010735 0.00046195 0.00006847
148 1 16.086082 5.531437 9.026646 -0.01756262 -0.04944837 -0.04131665 92677000.79771906 -538250192.00622928 -380973473.47691059
149 1 6.656033 20.024907 19.309431 -0.01272628 0.01707041 0.01986333 -6.19189288 246.84826887 -18.02455673
150 1 16.268877 11.794053 22.784158 0.00130159 0.00097961 0.03590039 -0.00016892 -0.00002307 -0.00020761
151 1 1.690107 23.309668 3.477786 0.04050067 -0.01257228 -0.03506407 0.00002813 0.00005459 -0.00000524
152 1 11.127759 22.516260 19.174497 0.01294196 0.01344192 -0.03459121 0.00008719 -0.00019777 -0.00050416
153 1 17.927774 4.998921 5.523451 0.02010873 0.00673276 -0.02767509 0.00083942 0.00000004 -0.00147876
154 1 24.926396 4.387705 19.803648 0.01454175 -0.01323310 0.05958508 -0.00011524 -0.00001600 -0.00018486
155 1 23.532269 12.357211 7.137297 0.01624266 -0.00776721 -0.00337394 0.00009208 -0.00001840 -0.00003764
156 1 7.365401 25.314504 10.144878 0.02700613 -0.00889631 -0.01234939 0.00012418 -0.00004153 -0.00013201
157 1 24.306055 5.828519 1.818487 -0.03580731 0.03737141 0.02316549 -0.00023519 -0.00003986 0.00030405
158 1 12.974391 21.430668 19.718266 -0.00087462 -0.02646564 -0.02586725 -28530.15733634 -4984.94466153 -31619.89459526
159 1 24.776040 5.531661 15.047054 -0.03667994 0.04212595 0.00986458 -422.85718034 -20.37613834 176.74659800
160 1 16.202679 29.632205 22.053286 -0.00617433 0.01135197 -0.00013054 123.82093493 9.25331863 88.89405198
161 1 26.734283 3.068260 12.688811 0.02148295 0.00505741 0.02425934 0.00080670 -0.00109313 -0.00097018
162 1 15.729391 18.432723 18.281526 0.00921875 -0.01454385 0.00010571 0.00066391 -0.00077172 -0.00028138
163 1 30.863043 7.613760 2.217174 -0.01447260 0.08373820 0.04292212 -0.00012484 0.00005278 -0.00011908
164 1 12.774935 13.158669 9.343761 -0.03012403 0.02992611 -0.01914327 -307.96052646 -63.59284544 601.77924860
165 1 26.481825 25.620269 11.295041 0.02323099 -0.02660177 0.00997666 -0.00008764 0.00006027 -0.00021504
166 1 2.145933 27.877815 32.412283 0.00204711 0.00816167 -0.01811313 0.00024836 -0.00033423 -0.00018022
167 1 12.134657 22.993079 30.403933 0.01572859 0.01659934 0.04232518 0.00000858 -0.00015836 -0.00012721
168 1 16.948235 26.161834 21.201041 0.01234661 0.01431778 -0.01524540 -1194.98027483 -761.41565724 -2596.60995894
169 1 12.539019 14.673517 11.607973 -0.03453638 -0.00588552 -0.08188901 0.01994746 -0.03142953 0.00734750
170 1 25.397361 29.622551 15.605404 0.03079015 0.02902436 -0.02136907 -0.00220539 0.00009234 -0.00090689
171 1 27.094286 14.964014 16.690450 0.02464726 -0.04159598 0.00091612 0.00006408 -0.00010038 0.00008218
172 1 25.532143 14.286523 17.856282 0.04907197 0.01963776 -0.02042477 -0.00008339 -0.00010024 -0.00014758
173 1 13.416837 16.063607 7.676629 -0.04379367 -0.01258550 -0.05397132 0.00058363 0.00199874 -0.00129270
174 1 13.109457 31.495564 27.997558 -0.03993718 -0.02100024 -0.00295557 -0.00007737 0.00096923 -0.00015350
175 1 6.978574 11.948562 32.952982 -0.03654085 -0.00325147 -0.01088059 -0.00085004 0.00143655 0.00190424
176 1 2.754737 1.409868 0.074657 -0.00496157 0.01246418 0.01869127 0.00103097 0.00098326 0.00005369
177 1 23.735170 20.301277 9.169823 -0.02099048 -0.01958596 0.04088892 -0.00003744 0.00003958 0.00014551
178 1 30.861293 7.749681 12.032374 -0.00262635 0.03831089 0.01344939 0.00003260 -0.00002806 0.00008261
179 1 21.472934 19.952938 24.270180 -0.02997039 -0.03098314 0.02185785 -0.00001640 0.00019545 -0.00006361
180 1 18.901831 14.676995 12.860800 -0.00432056 0.04299445 0.05271394 0.00014187 0.00002267 0.00001101
181 1 26.420415 16.313626 6.638063 -0.00597250 0.03408320 0.00910609 -0.00008016 0.00009719 -0.00020139
182 1 9.753892 21.017958 10.553254 0.03952988 0.02810272 -0.04652626 0.00035555 0.00033926 -0.00025764
183 1 9.462666 29.611584 19.644783 0.01977037 -0.01767982 0.02704578 0.00052145 0.00141928 -0.00048200
184 1 6.256663 6.666610 30.528620 0.02190978 -0.01876187 -0.02668367 -0.00019875 -0.00092944 0.00056165
185 1 29.684146 11.533316 9.403106 0.00466178 0.00696411 -0.01996888 14426432.86861965 -53721189.78275128 -15895223.37852857
186 1 9.753347 20.179912 5.695626 -0.00927535 0.03125936 -0.01881618 212.36816745 269.01266582 -104.76553510
187 1 18.172857 20.093003 31.295590 0.00633107 0.00877415 0.01745841 0.00005394 0.00022230 -0.00003709
188 1 29.409883 10.783831 32.805241 0.02137414 0.02346120 -0.04384863 -0.00015852 0.00000851 0.00004808
189 1 7.408757 21.139221 4.040164 0.04969460 0.01296791 -0.05011636 0.00298240 -0.00124344 0.00195884
190 1 13.953149 1.171313 4.172453 -0.03938738 -0.02697352 0.00936354 -0.00010622 -0.00019406 -0.00068200
191 1 12.894532 29.755940 10.729675 -0.00465418 -0.00829629 0.05108968 0.00005595 -0.00004935 -0.00005062
192 1 5.732972 23.613218 11.160108 0.01804393 -0.03973427 -0.02645000 0.00145552 0.00066790 -0.00076726
193 1 13.723073 8.149300 7.839888 0.01728709 0.02140762 0.03957307 -0.00134815 0.00148602 -0.00082913
194 1 2.354419 7.636401 32.218755 0.00962981 -0.01141250 -0.00348103 -0.00006478 0.00025592 -0.00053035
195 1 32.673370 30.393688 4.218512 -0.05643725 0.03627173 -0.05217816 -0.00016558 -0.00015064 0.00033707
196 1 1.551980 19.349421 17.872797 0.04831353 -0.02269149 -0.00714799 0.17544699 0.16829508 0.04856649
197 1 27.327695 6.165640 3.342954 -0.00176279 0.04387273 0.04792812 0.00010296 -0.00007609 -0.00004540
198 1 1.983066 26.607778 33.463068 -0.01602704 0.00997843 -0.02597051 0.00013208 -0.00006869 -0.00005919
199 1 6.038258 17.708803 8.592518 0.00190602 0.00441902 -0.00095876 -7.48092777 10.10594812 -1.59899856
200 1 32.046636 2.944450 21.533263 0.00137480 -0.07160903 0.00093489 0.00039536 -0.00034670 -0.00050981
201 1 27.008291 7.652425 19.319450 0.01156720 0.02614155 -0.00166336 0.00024113 0.00012238 0.00024913
202 1 19.924165 13.674029 26.679055 -0.07089553 0.02518045 -0.01269189 0.00021595 0.00007368 -0.00000406
203 1 28.938998 23.655499 15.775048 -0.00559763 -0.03997538 -0.01484078 0.00031292 -0.00002460 0.00010464
204 1 24.429413 0.239180 5.173203 -0.00253644 -0.03661051 0.02999772 -413.66780515 -240.94259321 -1018.21771420
205 1 8.911043 14.954653 13.440701 -0.02739753 -0.01912019 -0.01564657 0.00001900 -0.00072203 0.00030570
206 1 24.169201 30.918191 9.749532 -0.03398944 0.05691817 -0.01389239 -16124.32766543 -23584.00363911 29652.39611602
207 1 25.861141 25.253726 14.368328 0.01634557 0.03181598 0.04431454 -0.00027369 -0.00015005 -0.00016912
208 1 25.457292 33.360111 20.356667 -0.00073523 -0.01147152 -0.04420614 0.00004014 0.00028739 0.00031079
209 1 19.642197 29.453142 26.127546 0.05579662 -0.00745828 0.02025594 -8.96865176 -5.32235754 -2.99529848
210 1 2.978918 27.645050 30.799333 -0.00427487 -0.02118499 0.00811940 -38.54609885 10.25702411 138.08922622
211 1 31.993940 10.850201 17.184808 -0.01297164 0.01835370 -0.00849534 -0.00013076 -0.00019758 -0.00006092
212 1 25.463805 11.128754 32.026574 0.01868967 -0.03791652 -0.00814189 -0.00006375 0.00002888 0.00000365
213 1 20.771130 19.932566 3.743907 -0.03653894 0.01008761 0.01263578 3582.54815723 2332.29983278 1463.35885179
214 1 8.898042 18.945228 11.588340 -0.00494630 0.00865995 -0.01575394 -0.03011103 -0.01203451 0.00477054
215 1 29.847157 0.550367 4.420476 -0.03437557 -0.04157476 0.01963091 0.00024201 0.00010840 0.00011791
216 1 15.940653 9.901823 14.915865 -0.00528416 -0.01357236 0.01270462 0.00035069 -0.00044547 0.00020066
217 1 5.532380 8.387937 22.773330 0.03828738 0.02865437 -0.00945812 0.00001987 0.00018779 0.00005821
218 1 9.608496 24.023269 13.606696 0.00550264 -0.01488536 0.02117280 -0.00017045 -0.00000983 -0.00000454
219 1 2.026431 4.393833 24.951384 -0.05326737 0.01339201 -0.00634777 -275609.31197455 939485.16199111 -2745551.50330889
220 1 0.663260 14.019654 6.042311 -0.03891481 0.00118405 -0.03216822 -0.01230871 -0.00144973 -0.03962393
221 1 11.861150 4.921151 5.323277 0.02234491 0.00018429 0.01424039 -0.00019881 0.00009499 -0.00049382
222 1 12.721064 24.839168 18.341751 -0.02638008 -0.01545602 -0.02427788 -0.00063401 0.00236180 -0.00201180
223 1 21.760782 15.926683 1.974893 0.00615399 -0.05566921 -0.02289919 0.00006365 -0.00069129 -0.00015506
224 1 4.697625 32.217403 31.878977 0.01634041 -0.01162370 0.01974880 0.00043716 0.00016294 -0.00017709
225 1 20.786392 8.468292 11.130886 -0.01885281 -0.04299696 0.02085374 0.00007630 0.00030961 -0.00004540
226 1 25.100325 13.291403 27.733450 0.00128675 0.01382752 0.00441639 -0.00005134 -0.00021202 0.00124854
227 1 5.491269 19.089100 26.168725 0.07561660 -0.03964882 -0.02113337 0.00011021 0.00002501 0.00001477
228 1 12.119886 2.493119 21.199340 0.01368377 -0.00618440 -0.00983991 -0.00008690 0.00000089 0.00009395
229 1 23.341520 22.983729 33.494197 -0.01971111 0.00188538 0.02656556 -10234.15610155 -7003.99833727 -40231.13016868
230 1 32.404285 17.186297 15.080845 -0.04797330 0.02443902 -0.01147809 -0.00007050 -0.00001104 0.00010357
231 1 31.600821 18.935307 24.110406 -0.02742931 0.01212201 0.01625645 153.27244070 -209.82082142 -202.95967327
232 1 30.979360 18.260627 4.924477 -0.04904069 -0.00807696 -0.01627495 -0.00019191 0.00034017 0.00000422
233 1 32.600230 13.258784 26.045654 -0.01219099 -0.04346733 0.00918280 -0.00008631 -0.00001370 0.00016963
234 1 19.995186 18.737661 11.529695 0.00901820 0.00423105 0.01414301 0.00009511 0.00000026 -0.00004677
235 1 17.558993 6.523351 17.649977 -0.01316435 0.03208241 -0.06466224 0.00007002 -0.00012142 0.00001486
236 1 23.247612 9.643623 1.152678 -0.02751962 0.04358950 -0.03129749 -0.00008072 0.00006417 0.00007563
237 1 5.752764 32.841240 23.621928 0.00642455 0.00947743 -0.03702549 0.00015925 -0.00014012 -0.00014437
238 1 12.973974 5.442979 0.502355 0.00589294 -0.00363612 -0.01806001 0.00002250 0.00002079 -0.00012600
239 1 15.866117 2.856884 6.266210 0.02427765 -0.00364071 -0.03737991 -0.00115495 -0.00195256 0.00035600
240 1 22.344017 10.066563 12.939199 0.03904251 0.05016744 0.00254700 -0.00011942 0.00001006 -0.00001046
241 1 12.112139 25.145840 22.422722 -0.01629897 0.00980061 -0.02101788 0.78119293 -0.36809801 0.01752821
242 1 10.714662 21.082173 5.198496 0.01389630 -0.05057708 -0.03321673 -262.26355567 -246.15256253 135.62577072
243 1 13.107443 31.076692 32.028498 0.01453640 0.03785794 -0.02202060 0.00000502 -0.00001788 0.00022091
244 1 11.449030 25.947406 26.339250 0.00042818 0.01164737 -0.01226188 -0.00016488 0.00009648 0.00026542
245 1 20.156856 25.406159 16.914320 -0.01275325 -0.05746530 0.00254340 0.00037298 0.00005846 -0.00014846
246 1 10.611007 0.945475 5.042492 0.00124443 -0.04156313 -0.04228322 -0.00012100 -0.00008862 -0.00012492
247 1 9.869304 14.698287 27.502478 0.00566943 -0.00665277 0.00868048 -6.31541843 5.83878083 -0.50902883
248 1 11.773139 15.071940 20.745209 -0.06911748 -0.05193389 0.05274478 0.00008058 -0.00021423 -0.00008626
249 1 23.811518 24.615013 15.145137 0.01809118 -0.01296284 0.01025483 0.00004900 0.00007820 0.00002249
250 1 9.481362 20.398389 20.012522 0.03413273 0.01145066 0.02242319 -0.01134070 -0.00201040 -0.00220624
251 1 5.191023 32.982665 32.164476 -0.04545871 0.01626090 -0.03226646 -8.94330451 10.16758446 6.19344602
252 1 22.876572 21.936450 0.184429 -0.04547627 0.05878918 0.03127054 1198.63007428 2699.86937545 -924.11070160
253 1 13.464502 6.480451 25.944252 0.01622771 -0.05328245 0.03436949 -0.00043234 0.00026140 0.00004046
254 1 6.974571 10.065021 7.362205 0.01052953 -0.01199282 0.01277176 -0.00004555 -0.00007352 0.00008115
255 1 15.163877 13.136528 18.101718 0.00013664 0.01192434 0.03344734 0.00027951 -0.00005690 0.00074855
256 1 10.825116 8.906324 13.732138 -0.04317364 0.01782692 -0.01277859 0.00131571 -0.00000234 -0.00194350
257 1 23.386672 31.272808 26.063758 0.05641133 -0.00392459 -0.01194319 0.00022248 0.00075196 -0.00001943
258 1 16.756235 23.639812 11.804119 -0.04324809 0.04458666 -0.00831916 -0.18653344 -0.69820323 1.79503551
259 1 18.911188 30.702763 22.181190 0.00174794 0.00086168 0.04942038 -0.00987769 -0.00298502 -0.00160573
260 1 33.393415 20.169446 32.734533 0.00855035 0.03798093 0.03103145 -1383.83688451 -2312.77618758 -564.36034443
261 1 9.672209 17.321004 2.183853 0.00477495 0.03026364 0.02779258 0.00005328 -0.00020339 -0.00071048
262 1 6.556637 7.039059 5.888830 -0.03200029 -0.03652771 -0.02529475 41.90279240 -385.22410897 205.63946460
263 1 16.510094 18.414228 17.827374 0.03477209 0.04967722 0.02849045 0.00026624 -0.00035281 0.00005720
264 1 12.229743 20.584847 7.403042 -0.02021430 -0.04461595 -0.01415253 -0.00262895 -0.00036550 -0.00189630
265 1 25.449553 18.824940 25.034258 0.00385638 0.02273050 -0.02817726 0.00007073 0.00080572 0.00030489
266 1 7.159123 18.215893 29.308149 0.01539662 -0.01940270 0.04238984 -0.00034508 0.00025424 0.00023869
267 1 17.875149 9.775514 22.674628 0.04594662 -0.03058794 0.03319022 3.58688193 -0.50007020 -10.78915633
268 1 0.598498 7.828633 23.534325 0.02045119 -0.03665584 -0.01793104 -0.00042751 0.00165934 -0.00081081
269 1 12.133837 30.309416 10.512884 0.00341722 0.00429233 0.03238548 -0.00006038 -0.00019334 -0.00003601
270 1 4.184371 8.872755 7.271011 0.00043158 -0.02183224 0.02604560 -0.00144015 0.00133431 0.00073323
271 1 32.589329 21.965822 18.898946 0.01695540 -0.03895230 0.00150677 -0.00076519 0.00008751 0.00007749
272 1 28.985532 26.200749 6.254229 -0.01472425 -0.01522810 0.02167049 0.00002703 -0.00006510 0.00017354
273 1 6.607635 29.429742 27.112977 0.01244920 -0.01147991 0.01283481 0.00039162 0.00009732 -0.00017028
274 1 27.741197 28.932582 5.662385 0.01515263 0.02847102 -0.01389841 0.00010654 -0.00023154 -0.00012348
275 1 10.987546 17.195928 31.698552 0.00611027 0.03468270 -0.00517599 0.00002997 0.00028975 0.00039384
276 1 10.085077 32.163236 19.928717 -0.03635916 0.02970773 -0.00562954 0.00002097 0.00024737 0.00010041
277 1 9.182067 8.255166 19.722713 0.05198802 -0.00410822 0.02487413 -42.35740399 66.70406148 -1155.25411699
278 1 23.324360 23.258269 9.306480 -0.01992516 -0.00753494 0.01192320 0.00014906 0.00009844 -0.00008138
279 1 14.325693 0.801243 28.912655 0.04421960 0.05128527 -0.01907442 -0.96243049 0.02820437 -1.17446454
280 1 31.702110 4.245789 8.705860 0.03070450 0.02673769 -0.03608421 -399.88519106 -1744.26006889 992.70829136
281 1 16.957070 3.221814 21.695977 0.00573453 -0.01208691 0.02429729 -0.00010680 -0.00038110 -0.00070916
282 1 15.352415 27.625677 5.121323 0.02163194 -0.05304963 0.04317258 0.00000520 0.00022385 0.00008210
283 1 29.193495 30.304919 21.980227 -0.00684103 0.02135962 0.02708775 -161.68973864 140.89659590 460.67606491