ITEM: TIMESTEP
0
ITEM: NUMBER OF ATOMS
3252
ITEM: BOX BOUNDS pp pp pp
0.0 35.409749
0.0 35.409749
0.0 35.409749
ITEM: ATOMS id type x y z vx vy vz fx fy fz
1 1 21.851928 11.095528 20.330389 0.00435777 -0.04799262 0.05222168 -1034.52255494 1289.29389820 3045.72161812
2 1 9.420719 32.408267 20.090385 -0.06052203 0.02667951 0.04751923 0.00003861 0.00007391 -0.00013685
3 1 2.354211 29.305440 24.710183 0.00960266 -0.07411096 0.01559233 0.00012762 -0.00013765 -0.00008162
4 1 13.879735 32.038456 23.682295 0.04311183 -0.02151266 -0.02302527 0.00010118 0.00003467 0.00003170
5 1 28.613652 18.424117 15.975451 0.00856219 -0.04355878 0.03612779 -0.00004763 0.00004833 0.00004181
6 1 31.120369 4.547711 6.852593 -0.00337045 0.02252931 -0.02215805 0.00002274 -0.00003471 0.00002315
7 1 18.828709 7.127511 18.987153 -0.02730075 0.03429419 0.02365130 -0.00026329 -0.00042986 -0.00001605
8 1 15.948238 34.304810 2.152372 0.04196045 0.00897565 0.01122500 -0.00011912 0.00006190 -0.00001631
9 1 16.237355 5.687412 27.234453 0.04906618 -0.01510848 -0.02148140 -16184232.76755876 7860382.06692611 -11192215.73877890
10 1 7.201707 22.290425 11.357718 0.00274879 0.03236160 0.00953712 -0.00015144 -0.00005693 0.00001734
11 1 24.759112 8.277764 11.055107 -0.01500464 -0.00769322 -0.04119511 -0.00017988 0.00004431 0.00003150
12 1 15.772359 5.913253 26.912885 -0.03203596 0.03226090 0.00423216 16184189.03277023 -7860449.18891129 11192176.38235930
13 1 9.364004 16.439682 31.188452 0.03594646 -0.01029506 -0.01340103 0.00004093 0.00005420 -0.00009017
14 1 3.963226 18.167840 4.155402 -0.01578101 0.05052273 0.00979405 -0.00014579 0.00000474 0.00001660
15 1 19.726716 20.452918 21.894300 0.03047966 0.03894280 -0.02098153 12.34809216 3.51990368 13.09714457
16 1 0.605485 9.098231 19.420407 0.04757252 0.00741988 -0.00600736 -0.00002699 0.00002288 -0.00001007
17 1 19.143476 25.124353 3.477009 0.04817341 0.00348579 -0.00022879 -0.00002271 0.00016213 0.00003942
18 1 21.398550 16.162659 1.797850 0.02722109 -0.00809548 0.01649709 0.00004897 0.00008234 -0.00001764
19 1 9.368276 34.204944 22.665041 0.02281785 0.03095020 0.01340683 -0.00005154 0.00004087 0.00001011
20 1 26.709202 21.486540 28.379363 0.00230182 0.01968015 -0.05901384 227.44973192 -308.03136357 434.72195166
21 1 16.452276 11.997779 21.587072 0.01623477 -0.03281245 -0.00555520 -0.00030245 0.00006181 0.00011296
22 1 20.983183 33.707951 13.802010 -0.00327925 -0.01277662 -0.00593271 0.00005343 0.00013899 -0.00010344
23 1 4.042981 14.874875 17.088840 0.00407779 0.00257423 -0.02199157 1390.40800275 -1220.24893840 -165.63974724
24 1 21.932907 35.342526 14.706902 0.01398492 -0.02126125 0.00230359 116.91840945 3042.47723636 8365.70654508
25 1 1.357280 18.361938 5.869304 -0.00868097 0.01476114 0.01207867 -0.00014178 0.00006046 0.00001387
26 1 11.944679 22.929577 22.451865 0.04928417 0.06346435 0.00066280 -5.01581267 13.19852045 -10.61739313
27 1 28.533389 24.976835 31.864184 -0.03638903 -0.00452260 -0.02888046 0.00018771 0.00038088 0.00007181
28 1 22.676046 9.192468 4.825947 0.02455140 0.00817490 -0.04429122 0.00001329 -0.00018937 0.00001757
29 1 3.459607 30.733393 9.199174 0.00711429 -0.00154997 -0.01797869 0.00006236 0.00017731 0.00001030
30 1 28.187318 17.626159 15.636016 0.00213600 -0.01399900 0.01781555 -0.00000825 0.00000870 0.00006352
31 1 35.166240 29.129685 3.876053 0.06562279 0.03680622 0.00306322 -4676.45264344 -16437.81616308 -10673.20954794
32 1 16.490226 20.519851 31.064133 -0.04356470 -0.02016053 0.07745706 0.00003340 0.00009075 0.00003687
33 1 25.010890 30.218736 27.276184 -0.00000772 0.03293338 0.02500342 0.00012968 -0.00000080 0.00008206
34 1 1.582504 24.388926 15.693866 -0.03831242 -0.02151280 -0.00640752 -0.00011080 -0.00006517 -0.00006025
35 1 24.584705 7.681232 7.362032 0.04322324 0.02262381 -0.07225282 21.57817647 -9.69279960 31.35089963
36 1 3.238742 17.614102 28.223467 -0.00968975 0.02967887 0.03281568 -0.00002904 -0.00020009 -0.00006526
37 1 12.372264 4.803139 10.467345 0.00244054 -0.00480143 -0.05728564 0.00004422 0.00018373 -0.00014319
38 1 3.667364 26.041373 18.475176 -0.04088574 -0.01574903 0.00698913 0.00005341 0.00002858 0.00002121
39 1 9.885428 8.113249 15.819517 0.02869516 0.04996541 -0.04995404 0.00012260 -0.00000940 -0.00015729
40 1 21.368702 10.429542 7.964956 0.05504385 0.02982578 0.03457700 -0.00080135 0.00069325 0.00014463
41 1 6.983686 24.148943 26.202823 0.01336230 0.06679588 -0.02927580 -0.00004831 0.00006025 -0.00010202
42 1 25.233571 8.868090 21.180577 -0.04474917 0.02716488 0.03133788 0.00107177 -0.00059479 0.00046621
43 1 9.064990 24.123923 35.180576 -0.02495199 0.00834505 0.00664299 0.00009536 -0.00004343 0.00020021
44 1 27.082426 14.571749 8.759733 0.00144649 0.07536033 -0.00725188 0.00005454 0.00007714 0.00009069
45 1 11.969788 32.219391 34.447637 -0.00341424 0.01372988 -0.03193752 -0.00003382 0.00000578 -0.00013723
46 1 19.242607 26.925310 30.073541 0.03978013 0.00486567 -0.03688342 -0.00011029 -0.00001096 -0.00000117
47 1 20.813978 15.328246 17.148950 0.06012741 0.00677588 -0.00256800 -0.00020019 0.00022665 -0.00028308
48 1 28.021966 34.068569 13.126936 0.04401675 -0.00720653 0.00644347 0.00015650 -0.00021393 -0.00003359
49 1 27.370745 0.959000 18.795951 0.04245512 -0.01828097 0.00137265 0.00003725 0.00001478 -0.00006940
50 1 17.493642 34.685276 9.808017 -0.00985001 -0.05289342 0.00573385 -0.00005538 0.00008642 -0.00001816
51 1 19.137157 17.775277 34.337254 0.03177957 -0.04319836 0.00978361 0.00004251 -0.00008498 0.00006200
52 1 20.379915 20.756151 27.910859 -0.01669776 0.00276562 -0.02080356 0.00008557 -0.00015876 -0.00016120
53 1 34.943501 0.083173 29.613432 -0.00078873 0.00630690 0.03590834 -716.15626105 439.75672653 -761.38841382
54 1 19.859340 30.753317 26.949371 0.00755437 0.07672102 0.03265933 -0.00012082 -0.00001983 -0.00006964
55 1 6.792629 5.974338 25.358928 -0.07908136 -0.03160714 -0.01577578 -0.00005907 -0.00011745 0.00006725
56 1 22.137213 25.505627 6.036035 0.04131853 -0.03384757 -0.01359014 -0.00005467 -0.00002333 0.00000128
57 1 2.480927 18.197124 5.244813 0.00520751 0.03180593 -0.03392122 -0.00015834 0.00007271 0.00012675
58 1 28.438955 34.747338 20.041305 0.00823513 0.00050038 -0.01536212 0.00001859 -0.00006607 0.00002594
59 1 0.049465 25.828360 18.673644 -0.00288737 0.00559804 0.01728686 0.00000628 -0.00006406 -0.00005708
60 1 26.361429 28.008716 6.511842 0.02819642 -0.01482311 0.02040512 -0.00015026 0.00002609 0.00003359
61 1 21.035765 5.534786 2.445439 0.03212343 -0.00943485 0.03593658 0.00002684 -0.00008385 0.00002389
62 1 8.787332 5.239752 28.350059 0.02887176 -0.04336226 -0.04981724 -0.00028745 0.00003022 -0.00005994
63 1 10.764660 22.853468 35.226218 -0.04088954 -0.02278815 -0.00799790 0.00014811 0.00023768 -0.00003561
64 1 16.028194 1.998480 8.116414 -0.00592983 0.04066916 -0.00107867 -0.00013752 -0.00000902 0.00015486
65 1 28.299219 11.760596 10.325183 0.00616889 0.00421457 -0.02636284 0.00007980 0.00023737 0.00011167
66 1 29.221729 33.000845 22.313390 -0.04854007 0.02639209 -0.03159743 -0.00001785 -0.00008743 0.00010542
67 1 32.838110 27.511945 23.117787 -0.01391914 0.00011809 -0.04825025 0.00006532 -0.00014506 0.00002956
68 1 20.000983 9.830802 3.643843 -0.01468207 0.02093907 -0.00663596 0.00001344 0.00003883 0.00007187
69 1 15.913641 20.126724 12.725343 0.03713838 -0.01873817 -0.00739354 0.00001038 0.00006060 0.00005639
70 1 15.332792 14.555143 17.581985 -0.02306363 0.07229640 0.00301386 0.00005438 0.00003091 0.00015111
71 1 9.568872 30.873254 7.924507 -0.01791917 -0.03796830 0.00264144 -0.00001762 0.00002200 -0.00023758
72 1 23.728557 13.048873 21.252336 -0.00216909 0.00531455 0.01738673 -0.01092501 -0.01151395 -0.00531928
73 1 30.409592 1.166226 10.275932 -0.00781890 -0.02009021 -0.03701704 -0.00000188 -0.00008081 0.00008543
74 1 18.394472 3.811564 27.646912 -0.03559042 0.01678663 0.02066535 -0.00810091 0.00739174 -0.00137560
75 1 9.632205 6.321086 12.132370 -0.02971956 -0.00987372 -0.00273115 -0.00019175 -0.00002300 0.00014847
76 1 14.921164 11.588708 24.501529 -0.01123365 0.03485353 -0.00081677 0.00006030 0.00031116 -0.00023744
77 1 14.906861 13.001268 4.862930 0.04195394 -0.01812148 0.00888919 -0.00007933 0.00007446 -0.00004960
78 1 14.871619 31.907683 22.540068 0.01928517 0.01950726 0.00929192 0.00003938 0.00009335 0.00014980
79 1 14.952134 4.336924 31.493249 0.01060127 -0.03835354 0.02681321 -0.00013081 -0.00036187 0.00099641
80 1 6.006330 12.263962 24.407975 0.04187559 0.00926951 -0.00653763 -0.00011203 0.00002815 0.00008200
81 1 20.754187 35.194056 29.121641 0.02730976 -0.03760579 -0.03842039 0.00007103 0.00003976 -0.00004723
82 1 24.004423 32.162975 26.139765 0.02183107 -0.02740024 -0.05385360 0.00012863 0.00010338 -0.00000272
83 1 27.580516 29.175192 25.650450 0.01850912 0.08240069 0.04656927 -0.00010799 0.00011125 0.00002933
84 1 14.052463 19.949877 17.637481 0.02487191 -0.02020714 -0.02550430 0.00006297 -0.00007175 -0.00007719
85 1 17.913874 28.008002 22.552679 -0.02953710 -0.04972773 -0.03718117 -21.58560238 -169.28968741 270.55547953
86 1 10.468823 6.049216 25.468438 0.00296696 0.00034822 0.01631159 -0.00036673 -0.00008280 0.00009176
87 1 0.339564 17.065758 29.576473 -0.02046926 0.00264047 -0.04484350 0.00002706 0.00013937 -0.00007965
88 1 20.846725 7.950906 25.671669 -0.02504243 0.00535448 -0.03059854 0.00027273 0.00001562 0.00000147
89 1 5.547487 18.740647 26.010925 -0.00327375 0.00700146 -0.01112231 0.00008087 -0.00003743 -0.00005001
90 1 15.567360 0.111252 24.706372 -0.03107295 -0.06427821 0.01307611 0.00017518 -0.00020212 0.00006796
91 1 3.021786 10.008718 20.582955 -0.02199482 -0.01270451 0.04353190 0.00006887 -0.00002690 0.00008547
92 1 34.115053 21.954655 25.580385 0.01679955 -0.01446899 -0.04697910 0.00009929 -0.00006773 0.00009885
93 1 16.285060 9.012091 24.747853 0.01127158 0.04777724 0.00894988 0.00035749 0.00269261 -0.00193308
94 1 14.072300 15.091350 3.038860 -0.05023758 -0.00858964 -0.03035695 24.66491569 46.72327067 -34.90198918
95 1 32.657917 1.059410 17.815810 -0.03204305 0.02409274 0.03087714 0.00017440 -0.00010385 -0.00001498
96 1 10.968251 9.681940 10.809080 -0.05941938 0.03218234 -0.00235524 1185.17518580 1801.41910853 -812.69157692
97 1 29.327907 27.984678 0.080579 -0.01279613 0.00223758 -0.06310624 351290.04092790 160509.29714350 260410.15932027
98 1 28.715474 14.244299 7.830955 0.05078571 0.02460544 -0.03251244 0.00002352 -0.00008941 0.00012814
99 1 30.409198 21.886352 14.636716 0.00345845 0.00353397 0.02698638 -0.00002566 0.00017808 0.00007899
100 1 35.154006 29.832888 23.542000 0.06846851 0.01359465 -0.03549478 -0.00000443 -0.00001740 0.00013043
101 1 8.511049 0.246787 26.741858 0.01270531 0.00581179 -0.02238156 0.00012219 0.00000252 0.00003995
102 1 32.787701 10.581462 2.935949 -0.01990752 0.02808096 -0.00934086 0.00007403 0.00002042 0.00014727
103 1 28.035044 30.397969 3.708992 -0.03119251 0.04670396 -0.03552788 -0.00026423 0.00026925 0.00071460
104 1 3.563296 12.692802 33.089852 0.03407579 0.00477655 -0.00526027 202.44381262 258.74747463 4.08771198
105 1 20.549929 7.581095 1.523457 -0.02718449 0.01592856 0.03059931 -0.00000372 -0.00016125 -0.00008011
106 1 6.883305 7.974486 29.430094 -0.01042789 -0.04150106 -0.01733089 765.87659822 915.44704513 -2.14970326
107 1 13.174082 14.900221 34.027234 -0.02781097 -0.01528915 -0.03610421 -0.00022603 0.00002598 -0.00072688
108 1 3.316799 30.392742 20.796920 -0.06006355 -0.05270162 0.00403292 -0.00003079 0.00000294 -0.00002985
109 1 14.788426 17.208758 33.875931 -0.00244891 -0.05010583 0.04912292 0.00001252 0.00018331 -0.00029064
110 1 21.453801 11.572941 21.347388 0.01012421 0.04039063 0.02749789 1136.15308846 -1362.41647124 -2902.25983248
111 1 24.566439 8.063221 9.128666 0.03083963 -0.00015328 -0.04203810 0.14827477 -3.09755589 -14.32618925
112 1 0.003263 1.732202 27.070654 0.03673218 -0.05276025 -0.05122169 -0.00031023 -0.00108796 0.00196300
113 1 11.834630 20.591949 14.187665 -0.01810653 -0.02224134 -0.07431071 0.00003667 0.00022949 0.00011035
114 1 32.967817 12.578084 10.357016 -0.03955128 -0.04022279 -0.00303578 0.00002240 -0.00003650 0.00015396
115 1 29.354365 26.303463 29.328581 -0.02645178 -0.00799694 0.02398351 0.00003780 -0.00014568 0.00016251
116 1 19.301299 13.285716 17.219968 -0.05810982 0.05290397 -0.00723614 -0.00045305 0.00040386 -0.00052715
117 1 7.609111 33.411939 19.997067 -0.00989260 -0.04682127 0.06438062 0.00005245 -0.00010663 -0.00001280
118 1 0.170237 23.238956 10.067820 0.02433528 -0.01069391 0.01299074 3.86576913 57.81071504 -82.37540222
119 1 34.430268 21.030484 7.534675 0.02252649 0.02302494 0.01986824 -0.00063911 -0.00165959 -0.00190898
120 1 10.744621 16.707271 28.106627 -0.05357914 -0.04310539 0.03155572 253.32357424 -1365.48616940 2669.22512496
121 1 25.269489 4.762941 6.226097 0.01266539 -0.00429638 -0.01432833 0.00056184 -0.00093806 -0.00019727
122 1 21.946149 30.430997 15.588462 -0.01201467 0.02725270 -0.00359010 0.00004197 -0.00041580 0.00000120
123 1 25.696616 16.084641 8.151166 0.00315592 0.06188620 0.01287146 0.00002550 -0.00001063 -0.00007134
124 1 29.733467 14.325073 13.933017 0.00513755 -0.10148646 0.03558710 0.00006953 0.00000449 -0.00016213
125 1 18.481712 0.422132 1.353243 -0.02972026 0.00289111 0.01647430 0.00012253 -0.00005900 0.00007228
126 1 28.043166 22.271926 35.307651 -0.01130661 -0.03688494 0.00189953 0.00008799 -0.00024218 0.00005708
127 1 10.405289 10.221160 6.694793 -0.02817830 0.02283706 -0.01395073 -0.00000812 0.00011176 -0.00130986
128 1 0.299923 30.774938 18.228784 0.01930654 -0.00091019 -0.05914229 -0.00004175 0.00009799 -0.00010198
129 1 5.127117 32.705198 2.731868 -0.00477118 0.01204786 0.07545768 91.49616935 138.68512673 101.72181909
130 1 29.490614 11.372030 6.385580 -0.00702185 0.01664303 -0.00459033 0.00014677 -0.00010979 0.00006382
131 1 12.967851 0.086581 34.517955 0.00003791 0.02090322 0.03214864 0.00004594 -0.00021350 -0.00010707
132 1 3.113408 26.819572 17.956275 -0.05164468 0.00948921 -0.00754193 0.00002645 0.00003677 0.00007547
133 1 29.057503 33.540916 33.963888 0.02352548 0.03299811 0.01484537 -0.00000696 0.00010003 0.00000917
134 1 1.890781 16.019037 28.910618 0.01420588 -0.02493599 0.03548450 -0.00019050 0.00008284 -0.00008135
135 1 34.520694 17.116794 34.951601 -0.02325309 0.02947398 -0.01475211 -0.00004597 0.00028136 -0.00000816
136 1 1.125752 5.954387 2.360528 -0.07540440 0.05835747 0.03193927 0.00018285 0.00031214 0.00012791
137 1 22.878368 33.596668 8.170313 -0.03653829 0.05797745 0.02395610 0.00003312 -0.00003802 -0.00001681
138 1 26.590100 8.694863 13.333670 -0.02910914 0.02730796 0.06783367 -0.00011723 -0.00004564 0.00011530
139 1 9.433543 3.317328 2.975571 -0.00347093 0.00972715 0.02056335 0.00007951 -0.00006841 -0.00005587
140 1 23.070249 3.736611 15.493373 0.02902425 0.01847985 -0.00470131 0.00034971 0.00142420 0.00026134
141 1 26.150325 32.163710 33.736704 0.00805864 0.02724004 0.03466058 -0.00022176 0.00009678 -0.00011758
142 1 1.101005 23.036996 32.451749 0.01681575 0.03195308 -0.01299747 0.00014595 -0.00008288 0.00003096
143 1 9.296614 10.066151 31.749475 -0.00194302 -0.03367000 0.01554083 0.00104558 0.00087872 0.00092845
144 1 12.570304 5.961953 3.828459 0.00993695 -0.02992024 -0.03359048 0.00004971 -0.00008356 -0.00005800
145 1 7.019111 2.350189 23.470381 0.03587471 0.02154522 0.02074210 -0.00016027 0.00005822 0.00004596
146 1 1.756220 33.042528 15.438161 -0.00992739 0.01936217 -0.00697547 0.00000358 -0.00004205 -0.00010752
147 1 16.561996 5.812520 21.532556 -0.03286394 0.01370336 0.02327673 -0.00007248 -0.00015055 -0.00031746
148 1 32.296972 7.429108 8.643719 -0.01012023 -0.00414590 -0.00718444 0.00000077 -0.00025857 -0.00000960
149 1 19.375307 34.987042 27.822124 -0.02684548 0.04784648 -0.04822155 0.00005167 -0.00005334 0.00007938
150 1 18.880125 30.384537 32.064240 -0.01905187 -0.01749924 -0.01503167 -0.00005897 -0.00006605 0.00016670
151 1 18.452378 8.813522 0.745213 -0.00259697 0.00343819 0.09031669 -0.00010552 -0.00001540 0.00008953
152 1 13.574460 10.573783 30.255965 0.00522387 0.00595983 -0.07720475 0.00008836 0.00026171 0.00007950
153 1 7.055286 17.497978 19.989122 0.03346501 -0.02164490 0.04652557 0.00026191 0.00011044 0.00021643
154 1 27.089788 21.433899 9.331885 -0.02419026 0.08978201 0.00723879 -51580.06105821 15299.11557086 -57536.33671802
155 1 17.581541 35.315092 17.129857 0.00165828 -0.00197919 0.01430440 -0.00022805 0.00009424 0.00020623
156 1 29.870722 34.070035 28.532637 0.02838805 -0.03112245 -0.01894740 -0.00021696 -0.00005759 -0.00004784
157 1 0.156823 26.303892 35.056076 -0.04509498 -0.03127997 0.07384984 0.00004070 -0.00008656 -0.00026630
158 1 0.590572 17.694092 20.853757 0.01542824 -0.06878872 0.06479360 -0.00013838 0.00006864 0.00013422
159 1 28.800566 21.740768 21.014369 0.09484711 -0.01113333 -0.06207313 0.00012063 -0.00015365 -0.00013549
160 1 4.540536 17.211516 19.182376 -0.00506110 -0.04934277 -0.01737942 0.00020091 0.00041041 0.00053790
161 1 3.474552 19.234237 2.846867 0.00133077 -0.03888163 -0.03853408 -26524.17652579 -16034.26456222 -76313.46097264
162 1 7.902485 33.005130 25.340422 0.01584910 0.01129501 -0.00177181 -21668847.54387146 -62422084.84847863 92029837.50038911
163 1 34.687650 32.300992 0.529137 0.00468145 -0.02282462 0.03225224 -0.00021055 0.00053146 -0.00045808
164 1 8.963629 4.312164 10.011081 0.01738859 0.04018069 0.02313035 0.00006208 -0.00002156 -0.00012518
165 1 14.480632 21.274771 12.950865 -0.08282526 0.01239950 0.03861762 -0.00015317 -0.00000637 0.00005525
166 1 5.485410 18.318332 1.824484 0.06025755 0.01297589 0.00261788 -22.27332358 25.38645373 19.98139993
167 1 13.861410 31.789893 30.792539 -0.04099107 -0.03688658 -0.02692337 -0.00006260 0.00011212 -0.00002594
168 1 25.995712 12.440717 9.963498 -0.04696818 0.01691305 0.05274453 -0.00001006 0.00009838 0.00025613
169 1 5.154480 34.308551 11.301986 0.02106966 -0.02775719 0.04696003 -0.00013969 0.00008611 0.00005068
170 1 28.983158 32.506721 32.850379 -0.03272601 0.04104937 0.02238727 -0.00005283 0.00006817 -0.00017588
171 1 8.725571 30.210422 24.637046 -0.02548556 0.00324030 0.04840761 -0.00132385 0.00484089 0.00102516
172 1 11.212585 15.082595 25.027258 0.06767385 -0.01455585 -0.01519089 2.49688192 -10.33669420 1.76346726
173 1 22.703792 2.464946 28.832182 0.01437541 0.04236000 0.01214320 -0.00004224 -0.00005267 0.00002033
174 1 29.734393 16.632921 2.241748 0.01812092 0.01995657 0.00858000 -0.00010442 -0.00003155 -0.00007578
175 1 30.194960 3.437769 31.517516 -0.03400434 0.02216643 -0.00513376 -0.00014589 0.00007192 0.00015028
176 1 2.077807 18.568210 0.718435 -0.01254523 0.05093792 -0.03657306 0.03776874 0.01936321 0.06028719
177 1 7.660642 16.206510 8.546197 0.02458291 0.03090499 0.00508672 0.00003752 0.00002325 0.00026053
178 1 20.363356 29.223763 25.282170 0.00230681 0.02158244 -0.00655578 0.00125667 0.00051076 0.00142451
179 1 8.872409 25.365391 34.114055 -0.00367107 -0.02066656 0.05581373 -0.00000901 0.00006097 -0.00009963
180 1 27.254788 16.783956 5.674649 0.00252614 -0.02949565 -0.04102438 -0.00008555 0.00004086 -0.00018887
181 1 13.280510 27.584231 28.433457 0.02466313 0.02870281 0.00871416 -2698.63693708 10894.53433165 3868.21750621
182 1 19.995754 27.244277 10.148746 0.04795628 0.02919832 0.02196147 -0.00005110 -0.00004928 0.00000461
183 1 34.911917 28.199694 13.586323 0.02347572 0.04803487 0.03787711 0.00001130 0.00009515 0.00006436
184 1 5.817764 17.237645 31.966226 0.05314947 -0.06070656 -0.05391654 0.00005967 0.00016221 -0.00022404
185 1 23.328477 10.963332 20.884992 -0.00060808 0.02593441 0.00868843 -78.41452721 7.02040718 -29.45303811
186 1 25.874698 30.320860 31.224179 0.06457746 -0.04342686 0.05667557 -0.00026022 0.00007295 -0.00010165
187 1 30.162298 28.176727 28.417262 0.00937553 0.04352776 0.01786056 0.00010198 0.00015833 -0.00005893
188 1 6.285828 28.472131 23.600511 0.05645934 -0.02790769 0.02168822 -0.00000287 -0.00040103 -0.00029334
189 1 19.040356 27.386280 10.271944 -0.00098187 0.01351821 0.01913733 -0.00015360 0.00009590 -0.00009243
190 1 14.736529 33.017390 30.604797 -0.01890275 0.01514607 0.00696193 -24.05781774 -38.20893940 26.03127955
191 1 21.971462 11.695831 31.113529 0.09111005 0.00417092 0.04880640 -0.00015788 0.00010724 0.00005358
192 1 1.320023 17.283365 5.724619 0.00342051 0.01337069 0.08081613 -0.00074328 -0.00071971 0.00106464
193 1 30.165648 32.292935 14.343412 -0.02174837 -0.02400622 0.02082668 0.00015081 0.00004393 -0.00011910
194 1 21.859279 3.379457 18.912797 0.03866318 0.00963100 -0.00011636 -0.00000945 0.00008129 0.00023604
195 1 15.994755 21.755793 3.876775 -0.01070664 0.00323954 0.08523932 -0.00012422 0.00029436 -0.00013804
196 1 17.078005 27.240066 3.363456 -0.03557761 0.04479168 -0.00997850 0.00014071 -0.00000415 -0.00000449
197 1 25.282173 27.568513 32.101061 0.02279476 0.03820486 0.00568568 -0.00022558 0.00017308 -0.00021135
198 1 4.470133 14.228665 28.067948 -0.01217488 0.00811241 0.00587815 0.00012879 0.00006353 -0.00048319
199 1 6.843705 18.185722 32.416315 0.00178496 -0.05447202 0.03282749 0.00012129 0.00020213 -0.00029847
200 1 31.561488 5.169691 31.427270 -0.01477481 0.01599149 -0.02016938 -0.00006944 0.00021112 0.00004283
201 1 8.436907 2.980446 5.926280 0.07254057 -0.05300667 0.02422015 0.00017884 0.00006684 -0.00003456
202 1 0.712322 3.776240 6.540274 -0.02629073 0.00136405 -0.01775869 -0.00000946 -0.00001453 -0.00013756
203 1 9.746478 0.200401 8.632505 0.01788922 -0.06841144 0.05882067 -0.00007806 -0.00001981 0.00007280
204 1 1.551822 4.319296 27.340734 -0.03448272 -0.04887658 -0.01764136 0.00004723 0.00030610 -0.00010356
205 1 21.423968 22.317495 6.852039 0.01113697 -0.02924865 0.04042350 -0.00022019 -0.00007635 0.00013322
206 1 7.587430 9.413182 8.951961 -0.03469702 0.03057877 0.04136197 -29005.72871944 -22851.61465988 -29982.91544431
207 1 35.152815 0.133471 5.359097 -0.01612311 0.01250918 -0.01240304 -27.85364544 -3.98938838 42.41617126
208 1 2.388347 13.266328 25.303969 0.03261534 0.03619846 -0.01250861 -0.00014401 0.00001787 -0.00003103
209 1 6.720706 22.430470 24.463878 -0.00098953 -0.00387252 -0.03007670 -0.00038344 0.00005829 -0.00002792
210 1 7.012646 32.572253 8.487683 -0.01156075 0.01616871 -0.03600669 0.00004579 -0.00012951 0.00022843
211 1 2.999440 5.552884 2.457626 -0.01615387 0.00311412 0.00198433 -0.00006321 0.00001641 -0.00007863
212 1 4.825647 23.492977 9.533818 -0.01346444 0.03208491 -0.01656808 84.16782804 106.98962917 47.23929610
213 1 1.242646 20.705455 14.179759 0.00953757 0.02513935 -0.01270168 -0.00006757 -0.00015403 0.00040774
214 1 19.180252 9.746452 8.043857 -0.00066743 0.02174027 -0.00239185 -0.00017160 0.00018739 0.00002952
215 1 29.827804 3.817820 34.054676 -0.04972050 0.01759194 -0.01211193 -0.00000827 0.00015903 -0.00006374
216 1 35.253552 34.562246 23.541803 -0.00779157 -0.02604285 -0.01164508 -0.00006626 0.00003811 -0.00018208
217 1 8.090575 32.038804 33.703445 0.02255050 0.03708815 0.02235281 0.00024251 0.00009919 -0.00029643
218 1 25.452841 5.854414 21.854211 0.05942818 0.04569136 0.08257018 -0.00007292 -0.00006134 -0.00003020
219 1 34.314668 16.534723 11.485080 -0.05662822 -0.05006493 -0.01456263 0.13974270 0.80715904 0.26526383
220 1 11.163343 13.196327 25.000379 -0.08610316 0.01999455 -0.04697882 0.21596215 8.27665230 0.11768981
221 1 25.582102 8.108575 31.562638 -0.00109281 -0.01028240 0.00596736 -0.00012658 0.00019632 0.00012896
222 1 8.662391 5.791686 23.815338 -0.01920600 -0.00867784 -0.04789529 0.00005426 -0.00000210 -0.00016213
223 1 5.709204 2.346428 3.798641 0.06867357 0.01665940 -0.04027603 -0.00000063 0.00030184 0.00009583
224 1 31.995229 27.831507 16.529992 0.00296065 0.03092882 -0.04214967 0.00002949 -0.00001868 0.00009527
225 1 28.742787 9.194225 4.405979 -0.04515338 -0.04613820 0.09059395 0.00027354 0.00015729 -0.00033462
226 1 20.112916 0.097802 4.848945 0.02509602 0.08703086 0.03091799 -0.00000270 0.00016937 0.00000569
227 1 3.703666 21.809502 32.703911 -0.00658985 -0.00819744 0.03568598 0.00005091 0.00012546 -0.00006733
228 1 0.940569 5.021660 26.247199 -0.03693895 -0.03214541 -0.02750321 -0.00015525 -0.00003225 -0.00021334
229 1 30.108332 19.810180 28.570646 -0.02942828 -0.02532965 0.04287587 0.00183390 -0.00097341 0.00011712
230 1 27.401400 21.486398 33.789576 0.00050347 0.05575220 0.00988077 -0.00016015 0.00037962 0.00024990
231 1 0.287666 19.820599 7.066618 -0.02782190 0.01497543 0.01306770 -881.69342457 924.90227013 -139.57527210
232 1 32.653138 3.308191 29.906998 -0.05941625 0.01429115 0.02921140 -0.00092224 0.00137218 0.00033623
233 1 19.679289 24.534270 20.772014 0.05183098 -0.02255557 0.00943231 0.00042818 0.00030994 -0.00069402
234 1 25.777974 24.649933 2.431499 0.03966175 -0.03422691 -0.01789524 -0.00007131 -0.00016078 0.00011286
235 1 1.044334 11.110483 10.062416 0.00115845 0.02140735 0.03337120 -0.00001093 -0.00025645 -0.00006096
236 1 34.603652 21.197132 23.543659 -0.00927743 0.02892397 0.02563189 0.00000051 0.00016942 -0.00000199
237 1 17.221500 18.898367 28.190444 0.02724951 0.07980415 -0.04508642 0.00000437 0.00004603 0.00017892
238 1 22.820825 13.383632 5.614199 0.02352697 0.05413006 0.07935645 0.00018978 0.00008325 -0.00015355
239 1 16.349397 13.027666 4.032440 0.03703883 0.01514648 -0.06052064 0.00108914 -0.00109273 0.00048450
240 1 19.244304 30.217033 34.496005 -0.00857146 0.01009232 0.03102476 -0.00012287 -0.00007601 0.00014966
241 1 11.824897 2.262736 25.268960 0.06076590 0.03900842 0.00254408 -0.00023520 -0.00013504 0.00005324
242 1 15.899918 17.279202 15.769006 -0.02109873 -0.05388223 -0.02483963 0.00012038 0.00011934 -0.00005296
243 1 26.377876 12.225509 8.689362 0.02802882 -0.05971699 0.07284563 0.00018569 0.00032821 0.00004576
244 1 26.097777 4.149650 12.620037 -0.02108671 -0.04819586 -0.00227324 0.00010305 -0.00001323 0.00005178
245 1 3.368821 0.307514 16.253869 -0.01008010 -0.00318373 -0.00326610 -0.00005988 0.00021235 0.00012301
246 1 24.078681 11.446957 14.267427 0.00304656 0.00506718 0.01377316 0.00013815 0.00012677 -0.00016869
247 1 23.668427 24.870905 5.973462 -0.00546387 0.00147537 -0.01341569 -0.00015474 0.00004960 -0.00010674
248 1 19.538954 34.406067 17.804010 -0.04903031 0.03398763 -0.00637249 -0.00084019 -0.00041575 0.00132130
249 1 7.778300 7.579932 30.705197 0.00757437 -0.01026223 -0.00610271 13013.24135821 2128.48928304 9243.14370783
250 1 0.045913 1.665322 17.171260 0.03086651 -0.01773124 -0.03288915 0.00009843 -0.00014277 -0.00003311
251 1 19.112064 20.128909 17.853239 0.00861763 0.00487388 0.00511283 -0.00021005 -0.00007923 -0.00128873
252 1 3.131736 3.029339 34.456861 -0.01944912 -0.02692004 -0.01236149 0.00003097 -0.00005161 0.00003911
253 1 32.506483 23.305203 28.908667 -0.02417131 0.05096306 -0.03410107 -0.00006752 0.00011398 0.00009280
254 1 31.711250 19.079460 19.669909 -0.01436435 -0.00466974 0.00962858 -0.00007866 0.00012811 -0.00006658
255 1 33.382419 31.326045 29.892378 0.01485406 -0.00599559 0.02255998 -0.00042579 -0.00068525 -0.00009194
256 1 16.860876 7.669346 29.343459 -0.00467494 -0.01045167 -0.02947750 -0.00110330 -0.00427780 -0.00474672
257 1 1.121467 7.664801 5.058712 -0.03176280 -0.00848970 0.05874239 270583.24785739 -119533.84153731 625572.52803109
258 1 12.633692 27.991829 22.732287 0.00960718 0.02304792 -0.01076620 28.32920100 -31.51696271 17.76297100
259 1 32.260795 20.492218 27.282812 0.04245610 -0.00557213 -0.00352333 153.68233736 -101.12560484 163.83831938
260 1 24.250258 15.503908 17.666640 -0.02321107 0.01411896 -0.02038762 0.00016359 0.00029293 -0.00012788
261 1 12.227176 2.489615 14.608254 -0.01721380 0.01101627 -0.07044013 0.00009044 0.00019059 -0.00010316
262 1 15.312152 4.347181 16.043698 -0.02295259 0.03798462 -0.01646640 0.00005013 0.00005778 -0.00011526
263 1 29.526833 31.516262 30.489078 -0.03869733 -0.03416913 -0.02499060 -0.00008134 0.00015421 0.00002495
264 1 15.712749 4.715677 8.599915 -0.00462395 -0.02125857 -0.07284039 -0.00006419 -0.00006357 0.00003662
265 1 11.288847 3.271159 24.300409 -0.00728986 0.01595718 -0.00471319 -0.00010002 -0.00004975 -0.00013785
266 1 8.439815 0.356701 25.828807 0.05849187 -0.02165270 -0.04298184 -0.00337864 -0.01690311 -0.00283251
267 1 14.139035 26.773790 25.260959 0.00321766 -0.01176182 -0.05475321 -9.89889930 0.84800513 -35.81202206
268 1 28.334341 5.629120 22.075016 -0.01685346 0.03341452 0.02922218 536.06112693 -1558.36315795 758.39362460
269 1 24.615845 18.096599 0.538226 -0.00848103 -0.03335145 -0.02487902 45678450.75929306 -10051703.67880828 -44851817.15935534
270 1 33.924104 2.191234 17.528289 -0.04810256 0.01829758 -0.03777262 0.00005349 -0.00020763 -0.00003316
271 1 17.756747 30.045955 14.958569 -0.00019081 0.03854791 -0.04773048 0.00007211 -0.00026514 0.00002006
272 1 3.575090 15.027737 3.539551 -0.02505981 0.05669394 -0.04957107 -0.00067039 -0.00210242 0.00073499
273 1 27.026356 15.172218 25.453130 -0.03646740 -0.01073720 0.00730720 0.00022233 -0.00000189 -0.00001977
274 1 3.437425 23.444619 10.506618 0.03184446 -0.02768188 -0.01340889 27.83218104 0.96970816 -19.50143561
275 1 29.610667 22.592710 18.894125 0.05691969 -0.00054839 -0.06715764 0.00012864 -0.00006378 -0.00017927
276 1 16.117277 17.624110 30.918784 -0.03262982 0.01685875 0.05719767 0.00005768 0.00000424 -0.00001435
277 1 24.570460 29.533211 34.163452 -0.06706411 -0.01042848 0.01098323 -0.00034840 0.00014065 -0.00014089
278 1 16.535363 3.610819 33.697848 -0.04805062 0.00694904 -0.01676374 0.00001164 0.00006465 -0.00000094
279 1 6.179256 9.425588 16.197379 -0.00461348 0.03674023 0.00654524 -0.00001461 0.00006636 0.00004185
280 1 15.582889 14.674912 14.139370 0.00923096 0.00971117 -0.04341946 -0.00008371 0.00015693 0.00014912
281 1 11.014898 9.751801 23.764089 0.03632461 -0.03599736 -0.03209728 0.00009449 -0.00022843 -0.00006287
282 1 11.657378 28.273050 25.427248 -0.03034215 0.03082717 -0.04596619 0.01388850 -0.00713413 -0.01649470
283 1 22.875619 14.583915 32.593391 0.02919778 -0.02031327 -0.01880735 -0.00028635 -0.00020021 -0.00003264
284 1 2.921937 31.815134 23.997558 0.06429791 -0.00135235 -0.02762235 -0.00025474 -0.00007496 0.00008329
285 1 30.857589 4.864156 34.258080 -0.01574162 0.02235182 0.02026760 0.00000011 0.00014986 0.00002753