ITEM: TIMESTEP
0
ITEM: NUMBER OF ATOMS
2302
ITEM: BOX BOUNDS pp pp pp
0.0 31.586828
0.0 31.586828
0.0 31.586828
ITEM: ATOMS id type x y z vx vy vz fx fy fz
1 1 9.206803 0.817418 18.287178 0.01809465 -0.00846727 0.01907322 0.00012268 -0.00019034 -0.00011445
2 1 10.125437 11.776728 12.026969 -0.06786831 0.05188559 -0.01355029 0.00002097 -0.00011059 -0.00001653
3 1 7.312209 18.752681 23.104140 -0.02929503 0.03997101 -0.02412322 -0.00005470 0.00011678 -0.00000889
4 1 12.498554 6.602903 17.458286 0.04857903 0.05069134 0.01859981 -0.00009201 -0.00016809 -0.00009256
5 1 14.658105 20.906246 31.018993 0.02260438 0.00417135 0.00331011 -0.00003519 -0.00016142 -0.00001972
6 1 10.942800 0.153298 21.144950 -0.00912519 0.03923109 -0.01694932 -0.00000731 0.00008384 -0.00005575
7 1 22.700294 5.782482 21.204081 0.05937976 0.02594555 -0.01829073 -0.00015556 0.00000167 -0.00021599
8 1 11.562799 1.203495 12.460062 -0.04119850 -0.00406023 -0.06505716 0.00011759 0.00029318 -0.00006654
9 1 8.007898 16.994265 22.793001 0.01664127 0.01675039 0.01432642 -0.00007743 -0.00016274 0.00004615
10 1 22.377949 14.092882 6.563136 -0.03496428 0.02148984 -0.00260411 -0.00002914 -0.00007216 0.00004460
11 1 25.917394 27.425892 11.951862 -0.00200976 0.04385557 0.00859149 -0.00011044 0.00011071 -0.00004073
12 1 5.056859 28.484267 26.510923 -0.03260164 0.02300837 -0.01785414 -0.00002918 -0.00007565 0.00003108
13 1 10.099024 20.008893 25.038184 -0.02460910 -0.00575172 0.00907894 -0.00008477 0.00004990 0.00000058
14 1 3.848953 8.411751 6.123278 0.00669796 -0.02603373 -0.02073707 0.00003482 -0.00008691 -0.00002385
15 1 26.551724 1.092138 17.534784 -0.00693550 -0.02019016 -0.01321623 -0.00003884 -0.00008602 0.00005301
16 1 5.769994 13.479096 19.637009 0.02544704 0.01806959 -0.03477014 0.00001166 0.00003151 0.00001570
17 1 20.062192 19.101991 24.269913 0.02903239 0.02736168 -0.00177925 -0.00013374 -0.00004605 0.00018588
18 1 22.406741 16.803525 8.237173 0.04102924 -0.01328157 -0.00642532 -0.00013983 0.00004183 0.00005129
19 1 0.709871 17.836232 5.369485 -0.01292263 0.04457859 0.01482323 -0.00006834 -0.00013050 0.00009650
20 1 27.441038 16.233575 4.210641 0.03090201 0.01552979 0.02243768 -0.00022982 -0.00016823 0.00001927
21 1 20.887189 11.949852 17.949063 -0.02646900 0.07052298 -0.01398145 0.00000863 0.00003123 -0.00013679
22 1 0.121629 14.836819 18.437146 -0.00431488 -0.03245503 0.03526846 -0.00011554 -0.00020072 0.00002365
23 1 22.601112 5.765486 10.068659 0.04362391 -0.06798599 0.03494721 -0.00001549 -0.00018700 -0.00009763
24 1 20.251783 0.721223 3.282270 -0.01068479 -0.03938184 -0.00806095 -0.00008255 -0.00019298 -0.00013709
25 1 18.427675 6.757794 0.099082 -0.03502930 0.02028042 -0.03062674 -0.00020990 -0.00012554 0.00014797
26 1 25.712680 6.141736 19.097938 0.00046247 0.01040154 -0.01363506 -0.00008468 0.00004834 -0.00020916
27 1 11.231926 25.456173 20.214470 0.04761638 -0.02194801 -0.00772054 0.00017182 -0.00028948 0.00006492
28 1 19.137083 12.632000 30.816957 -0.02873907 -0.00347152 0.01219246 -0.00000013 -0.00001377 0.00000662
29 1 31.290112 28.045195 27.763933 0.03950836 -0.01636227 -0.01829122 0.00006370 -0.00016994 -0.00000016
30 1 30.406352 27.116057 14.830755 0.01664774 0.04639258 0.00300521 -0.00012910 0.00003002 -0.00004196
31 1 4.133843 22.094097 17.252359 0.01143122 -0.02311402 -0.05337430 -0.00001029 -0.00005826 0.00003384
32 1 21.802960 24.235675 11.940977 -0.00860273 -0.00776903 0.02443530 -0.00004430 -0.00012121 -0.00003702
33 1 29.304222 7.244007 23.051224 -0.00889823 0.01947041 -0.06129543 0.00017870 -0.00008354 -0.00001779
34 1 17.005803 6.756096 29.553984 -0.00794414 -0.04335298 -0.03411964 -0.00007540 0.00006826 -0.00000744
35 1 30.517752 0.248257 13.358164 0.00663196 -0.00582194 0.01402509 6.22933622 3.47147147 -13.68918628
36 1 13.889794 10.352715 22.545761 -0.00323219 0.02034196 -0.07317833 0.00002379 0.00001539 0.00010943
37 1 24.020310 4.533378 22.735062 0.02217810 0.00702273 -0.03218784 -0.00019810 0.00015677 -0.00009554
38 1 29.664519 7.446957 1.174487 -0.01435701 -0.02281365 -0.02861453 -492.03753066 -78.91456460 -923.43031383
39 1 17.370834 24.193084 16.236389 -0.02429871 -0.03473723 0.00321083 -0.00002754 -0.00017257 0.00006218
40 1 17.533972 26.025130 22.527548 0.01563544 -0.02044400 -0.05477541 -0.00004230 0.00010484 -0.00008579
41 1 31.178269 17.098912 28.025184 -0.03498094 0.00217778 -0.01084031 -87.38465813 7.01904688 -20.00548775
42 1 12.011138 19.089886 13.214585 -0.02605597 -0.03275162 0.03629638 104626881.30725512 86352407.32695234 142759246.75386146
43 1 17.523165 29.883053 30.083526 0.00384895 -0.02304206 -0.00841413 -4412250.23292072 1146277.61308992 -1505570.44916893
44 1 4.115975 13.122881 1.727420 0.01980569 0.01376697 -0.00103487 0.00006329 -0.00001939 0.00007014
45 1 27.416431 31.461305 27.766582 0.04546141 0.01233991 -0.03376094 6.14587528 -0.74246642 -5.42738042
46 1 19.786535 23.286937 5.950241 -0.01218316 0.00277478 0.01917714 -0.00004773 0.00000801 -0.00004501
47 1 6.627811 9.262441 14.992558 0.03136962 0.00820480 0.02202154 674.20251770 1107.31871591 -1175.90702288
48 1 11.067156 20.399222 2.906135 -0.01760459 -0.00260036 -0.00873282 0.00002683 -0.00008613 -0.00018197
49 1 24.968023 13.624999 29.654505 -0.02850176 0.00638074 0.02521527 -0.00006224 -0.00004979 -0.00014324
50 1 7.090959 9.122150 21.802894 -0.00261538 -0.00309484 -0.00354499 0.00005340 -0.00000996 0.00018990
51 1 9.646610 14.798005 17.806477 0.00719670 0.02616142 0.03851696 -1721.82542812 -540.64724155 1670.72924390
52 1 29.411862 30.702265 18.538304 -0.02154773 0.02311730 0.02247820 -0.00013624 0.00001568 0.00017156
53 1 26.643163 27.298065 0.233465 0.02231423 0.01181297 -0.01365219 -0.00007611 -0.00012990 0.00017149
54 1 25.221925 25.870659 18.017713 -0.01688329 0.02565111 -0.00336038 0.00001893 -0.00011117 -0.00004510
55 1 25.935048 6.755078 8.935004 -0.02893551 -0.00090486 -0.01403889 0.00009532 0.00002713 0.00013540
56 1 11.892547 14.906169 0.600668 -0.01921100 0.02235284 -0.01778073 0.00000223 -0.00008680 0.00005666
57 1 8.128045 21.055834 1.045445 0.00389137 0.01227023 0.02273010 -0.00005766 -0.00014176 -0.00002032
58 1 28.152672 5.523529 1.402227 -0.03351468 0.01297434 0.02508072 0.13330190 0.16985966 -0.02007899
59 1 30.192452 17.575414 30.539269 -0.00721526 0.03690798 -0.06971562 0.01335656 -0.00648974 -0.03455837
60 1 3.210304 3.345729 28.306442 0.02307169 -0.07033245 0.03543441 0.00001982 0.00028507 0.00000830
61 1 1.000075 16.630139 5.318166 0.00169129 -0.01544098 0.03906585 21.69860805 -9.39015008 -53.31795246
62 1 29.295173 28.576513 22.429528 -0.02356809 -0.01389655 -0.01095447 -0.00013447 0.00014971 -0.00017902
63 1 19.609444 17.214292 2.225323 0.00017575 -0.00840192 -0.00576371 -0.00000724 -0.00009865 0.00004301
64 1 5.712061 25.321813 31.557365 0.03865396 -0.01619687 0.00711503 0.00003381 0.00008374 0.00007636
65 1 3.935937 1.108813 2.193487 0.00680146 0.01072018 -0.00654721 0.00001390 -0.00005208 -0.00017491
66 1 22.093968 26.992404 29.559835 -0.05867769 0.02681520 -0.01024495 0.00008453 -0.00011500 -0.00004708
67 1 3.983369 6.063021 0.763658 -0.00823409 0.03553592 -0.00679148 -0.00000074 0.00002701 0.00008727
68 1 22.938626 6.033886 0.070607 0.01774224 -0.06506990 0.02234057 -0.00017565 0.00001232 -0.00010467
69 1 18.904608 9.430451 6.393148 0.01100270 -0.03384117 -0.05421331 -0.00001042 0.00000576 -0.00008942
70 1 20.008184 5.777628 13.693094 0.02773461 0.02157936 -0.01401970 -822.85237570 1109.41089423 979.90694253
71 1 28.143037 31.396297 0.712134 -0.04854442 0.03030101 0.00938740 0.00009100 -0.00005664 0.00065796
72 1 7.431977 30.611505 26.617657 0.00027867 -0.00928407 -0.03916748 0.00019446 0.00007618 0.00019084
73 1 28.194234 28.761373 8.197969 0.00850328 -0.03589671 -0.00846505 -846.79359498 1907.16109255 -698.76632033
74 1 4.720952 20.325500 14.358805 0.01732546 -0.01329272 0.02753023 -0.00008541 0.00005421 0.00007727
75 1 20.516382 8.596503 8.408329 -0.00383329 0.00619108 -0.04891308 0.00003275 0.00011082 -0.00001166
76 1 31.009390 15.297466 11.197027 -0.04295545 -0.00946178 0.00136654 -0.00000182 -0.00004318 0.00004251
77 1 18.682383 24.724673 5.676166 0.03540547 0.04500910 -0.01430636 -0.00002588 0.00005213 -0.00006460
78 1 9.172150 30.223929 6.583821 0.00788141 0.04550492 -0.02346568 0.00008704 0.00004689 -0.00004294
79 1 18.324522 14.867707 8.830910 -0.00464764 0.02407366 0.02515783 0.00017180 -0.00004650 0.00006112
80 1 4.222991 5.767964 17.702787 -0.04654538 0.02148698 -0.03073124 -0.00008223 -0.00011426 0.00017733
81 1 18.232046 5.265331 26.038542 -0.04061323 -0.02663114 0.03105144 -0.46058495 -0.00560134 0.59817634
82 1 29.963646 1.899048 25.904103 -0.02581111 0.00750601 -0.01051948 -16.76890617 15.18840997 -29.91801624
83 1 21.209240 29.944936 3.694158 -0.03605018 -0.04449680 -0.03242895 -0.00005684 -0.00022169 0.00022495
84 1 17.045537 13.735410 3.565878 -0.00755302 -0.02622126 0.02910216 -6.76676316 -1.28612546 2.54877287
85 1 5.153282 20.879376 28.059867 0.07175866 -0.03334247 0.06284001 294.36825166 -374.60816008 233.13790327
86 1 13.588729 21.806218 9.298255 -0.00202487 -0.06073710 0.00521716 0.00015446 0.00026228 -0.00021214
87 1 11.694746 10.219177 20.656803 0.00109691 -0.01865591 0.00086456 0.00004918 -0.00004812 0.00021557
88 1 12.117361 17.192739 17.937338 -0.00734869 -0.03090633 -0.02616608 -1865283.26825083 -792692.72904268 -23968086.15757832
89 1 19.059085 0.945907 16.022826 -0.00392080 0.00054804 -0.00114256 -283.12075255 -334.45426642 -32.91302170
90 1 20.724985 22.086180 4.245642 -0.01030174 0.00164622 0.06125887 -5431640.07203012 157774.51601778 -548899.58294098
91 1 4.766195 14.436601 5.946700 -0.01152616 0.05273083 0.00601920 0.00078304 -0.00073361 0.00013583
92 1 25.556987 7.782277 23.451399 0.02387225 -0.02450729 -0.00105412 -304625655.44848412 661241837.10327935 -68000991.17864351
93 1 5.936949 17.091345 16.893434 -0.02164301 -0.01327854 0.01769685 -0.00076520 0.00044764 -0.00007092
94 1 8.623463 7.757180 12.804080 0.04057733 -0.01949486 0.04722227 -114.44053015 -2.10207031 -6.08369337
95 1 28.199748 27.866711 12.186653 -0.01343347 0.02728254 0.00371642 -0.00032085 -0.00094330 0.00122358
96 1 10.728249 14.079324 24.251767 -0.05599518 -0.00022267 0.02732935 -0.00011815 0.00010497 0.00020596
97 1 31.497906 23.786206 1.820779 -0.05421590 -0.01115890 -0.05879829 -0.00003560 0.00007521 -0.00009310
98 1 8.795646 15.474981 29.712382 -0.00581043 0.01181785 -0.02769222 0.00004051 -0.00005848 -0.00008279
99 1 16.610002 2.901983 22.307921 0.01381900 0.02108888 0.00488060 -0.00037330 -0.00024892 -0.00030539
100 1 12.019608 26.964536 23.961415 -0.00567715 -0.03782827 -0.04618506 -0.00010388 0.00001079 -0.00006419
101 1 13.595977 29.891803 24.403309 -0.01229063 -0.02971576 -0.00376858 -0.00024867 -0.00005136 -0.00005986
102 1 8.912669 0.493637 30.844117 0.01629178 -0.01398726 -0.05465756 33.56354510 -16.03785341 -0.31918365
103 1 5.250570 2.149412 10.943463 0.00328470 0.04118909 -0.02488972 2625.71272160 3530.88300194 3002.91670863
104 1 13.178643 15.887504 24.276111 -0.00462488 0.01366887 -0.00683292 -0.00004897 0.00002833 0.00017707
105 1 0.523953 10.863201 1.360057 0.02093236 -0.00546135 0.00326263 0.00075892 0.00115032 0.00009168
106 1 23.312283 13.354157 10.984290 0.00781626 0.03597583 -0.00356285 0.00004000 -0.00005336 -0.00002723
107 1 1.491728 16.884629 12.271994 -0.01966653 0.00855496 0.05187085 -5115.26597024 -3694.26659999 8831.68443157
108 1 22.563069 24.462765 18.282359 -0.00024817 -0.03937910 0.03661330 0.00002526 0.00003522 -0.00007225
109 1 1.879812 21.795834 22.439056 0.04600183 -0.00110189 0.02446649 -0.00011190 0.00026121 -0.00011000
110 1 30.742750 26.007367 14.977743 -0.01708893 -0.00899014 0.07207536 -0.00004996 -0.00005761 0.00010580
111 1 4.476165 29.626280 21.145404 0.01361528 0.01007896 -0.03716649 0.00014440 -0.00014332 0.00001310
112 1 3.813824 30.214065 12.008280 -0.03649711 0.01361214 -0.05503711 -0.00015691 -0.00168587 0.00027420
113 1 21.683762 20.643009 1.828022 -0.05828103 -0.01010031 -0.04151606 -173.36677307 -231.39122648 456.47144540
114 1 11.796251 0.584687 29.722751 -0.00350336 -0.00637731 0.04154906 -0.00111976 0.00013342 0.00043511
115 1 25.743976 27.156728 27.488074 0.03106425 0.02769316 0.01424126 -0.00026500 -0.00048818 -0.00010188
116 1 15.378490 30.914815 17.135998 0.01319318 0.02052438 -0.01299925 185113.91969357 437029.31966465 2036029.17176097
117 1 0.688262 14.359389 12.664274 0.04369943 -0.02425696 0.04220698 0.01696866 0.05301760 -0.00812501
118 1 13.956151 29.337609 18.195874 -0.00288787 -0.00575504 -0.03361495 0.21483739 0.23806820 -0.16016024
119 1 26.149570 25.670206 28.630017 -0.01163021 -0.02622203 0.02016999 74.84000381 -255.72504949 126.81500573
120 1 7.894998 14.834523 16.881912 0.03272257 -0.03052662 0.02960990 3.82992599 -0.07999482 2.02178827
121 1 22.833260 10.637504 24.148455 0.01549540 0.03866278 -0.05431222 -0.00102574 0.00114295 0.00029815
122 1 11.658301 16.818757 5.011270 -0.02958784 0.00379265 0.03595735 0.00001328 0.00004932 0.00004700
123 1 14.675819 17.590131 8.481007 -0.01997930 -0.00970129 -0.00162984 0.00003264 0.00007196 0.00001007
124 1 25.294311 0.588693 29.529014 -0.01171770 0.00415823 0.01444114 0.01353288 -0.00455173 -0.01137289
125 1 23.606556 16.104911 9.406788 0.01130393 0.00323916 0.06396172 -575.21175455 -257.74665630 -327.86508743
126 1 20.808895 23.124575 14.260561 -0.00162347 0.03390224 0.00805185 -15436.79205687 -17405.79614948 -13584.07419844
127 1 24.508120 7.358045 31.114096 -0.02583087 -0.00226267 0.04659680 -0.00005622 -0.00015631 -0.00017303
128 1 3.159817 14.977083 31.415766 -0.00895011 0.02814734 0.00280936 0.00015601 -0.00018279 0.00028863
129 1 20.043072 13.156419 27.976037 0.01178300 -0.00918902 -0.03975392 -0.00001602 -0.00013474 -0.00017562
130 1 21.852407 14.398543 14.259106 -0.01724223 -0.00656945 -0.02219195 -0.00000638 0.00005598 0.00007926
131 1 12.529331 0.163003 14.970113 -0.01616137 0.00507537 -0.01684439 -0.00189542 0.00042612 -0.00136253
132 1 11.046250 20.132041 7.285681 -0.00149574 0.02710266 -0.00198290 -0.00002393 0.00006463 -0.00006282
133 1 5.488813 24.294860 17.410662 0.01378353 0.01165930 -0.04359400 0.00025806 -0.00005225 0.00001304
134 1 7.388154 4.679375 22.967902 -0.00102879 -0.04778749 -0.07495912 -0.00005336 0.00020032 0.00006203
135 1 19.200063 1.199464 4.781027 -0.01561949 0.03238508 -0.00385111 26710.44662976 15287.52393784 78895.83271835
136 1 27.358934 1.159259 0.985549 -0.02462277 0.01038260 0.00226819 -0.30069456 -0.00531078 -0.21592557
137 1 18.837676 29.639017 27.484193 0.00682156 -0.01215162 -0.02510009 26.52024720 -3.29403674 17.93872151
138 1 23.152487 15.330525 2.486632 -0.00081562 -0.01198021 -0.02061380 0.00016569 -0.00008604 -0.00016381
139 1 30.669339 11.002762 22.573289 0.03919946 -0.02698995 0.03911026 0.00009690 0.00013118 -0.00011057
140 1 25.043311 23.469359 10.878845 -0.03653683 0.02896222 0.02132004 0.00023294 -0.00008536 -0.00012663
141 1 21.692107 25.091429 19.493233 0.03108916 -0.00396902 -0.02758431 0.00014162 0.00007866 0.00022585
142 1 8.180532 3.521187 29.277163 -0.04779464 -0.02311209 0.01639487 -0.00060984 0.00235693 -0.00117868
143 1 27.347033 30.160350 23.940820 -0.01454193 -0.03608499 0.01946320 -0.00040164 -0.00110429 -0.00201649
144 1 22.769167 7.534459 26.776730 -0.04229209 -0.02384152 0.01724387 -0.00038323 -0.00008657 0.00094776
145 1 7.710266 3.550664 10.490034 -0.03076454 -0.02208423 -0.00174333 2.96809308 -1.85678594 0.50042907
146 1 18.625843 1.237349 14.207147 0.00790364 0.01048057 -0.03222862 1.87048604 -1.25864788 7.83761514
147 1 3.964580 23.953938 7.733512 -0.02051222 -0.02660112 0.01081851 28.79534170 -9.29019577 -23.11674568
148 1 28.862522 0.127497 26.576794 0.03009856 0.03457840 0.00807114 -5.67183299 -0.20035608 4.78349922
149 1 25.857368 29.484628 26.959786 0.03254659 -0.00167732 -0.00152965 2510683.32407750 5756171.90564531 -3936968.83952507
150 1 10.372796 7.041281 8.900734 -0.00503219 -0.00232522 0.08363990 0.00086838 0.00038188 -0.00116190
151 1 28.722578 10.969650 29.770723 0.03459228 -0.01718712 0.01915575 -0.00004536 0.00049119 -0.00038295
152 1 13.719440 21.188898 4.303145 -0.00993792 -0.01647431 0.02000087 0.00003348 0.00006137 0.00018923
153 1 24.792379 24.205411 21.918557 0.02152201 0.00888833 -0.01867979 5.50564274 4.98144519 -16.95776171
154 1 29.350157 19.194818 20.446584 0.03977339 0.03088095 0.03182859 -0.00003232 -0.00002203 -0.00009599
155 1 26.504740 21.179716 24.246139 0.00809114 0.00994295 0.05426814 -5331.15303184 375.96553668 1241.17476308
156 1 13.538737 28.172290 10.193276 -0.00526411 -0.02447321 -0.04061629 0.00022975 -0.00009046 -0.00016264
157 1 11.261043 21.178201 17.574896 0.00613508 -0.00364800 0.02931677 536.40112428 455.70301560 -75.51733519
158 1 8.691508 9.509208 26.230532 0.04854561 -0.02346889 0.00532793 -0.00011307 0.00004839 -0.00010561
159 1 6.382512 15.277449 8.325618 -0.03056369 0.02813277 0.05815087 0.00005923 0.00006883 -0.00002023
160 1 16.454764 26.736885 25.018932 -0.02727871 -0.00674791 -0.02291568 -0.00038949 -0.00071032 -0.00085716
161 1 18.109084 30.749193 2.572686 0.01751865 0.02678989 0.01572531 -0.00018634 -0.00041731 0.00068037
162 1 29.447899 30.185874 4.278224 0.01486792 -0.00225134 -0.01453423 0.00059249 -0.00003789 -0.00026450
163 1 0.150207 24.669632 7.797534 -0.02383612 -0.02173905 -0.03051918 -0.00150906 0.00005488 0.00001014
164 1 0.504828 1.741030 31.330433 -0.01699631 0.01924557 -0.05270830 -41639.47236471 31300.19932924 -33173.18557201
165 1 30.242338 0.005017 0.026487 0.03027019 0.05086592 -0.00845842 0.09049957 0.08276080 -0.01347168
166 1 26.228963 10.633041 18.475055 -0.01094156 0.01926794 0.02206485 -0.00010018 0.00021883 -0.00015909
167 1 20.657777 5.604922 1.415290 -0.04218799 -0.03606367 0.01996177 -16.67823808 166.52865389 12.89677263
168 1 23.732259 9.467584 6.311173 0.04378305 0.01513959 0.04362801 -0.00010519 0.00003248 -0.00008546
169 1 2.838538 22.565803 17.427941 -0.02428981 0.05591110 0.01807385 -11910.85309143 -4553.70144958 5826.19514882
170 1 20.198628 9.115208 27.209921 -0.02244117 -0.03112306 0.03190681 0.00019897 0.00079396 0.00025580
171 1 30.690760 25.768674 3.368480 0.06754188 0.01682035 0.01801120 -0.00017742 -0.00012075 -0.00001357
172 1 26.335535 27.579964 28.898531 -0.02134690 -0.00879873 0.02730613 -0.56571741 -5.72422372 -0.83128709
173 1 11.633090 14.779856 31.488033 0.01628635 0.03782216 0.08335983 -0.00003513 0.00018798 0.00000327
174 1 22.225539 13.962614 0.801962 -0.00381133 0.06567814 0.04353876 0.00005987 -0.00014595 -0.00019323
175 1 8.580998 15.121887 21.547482 -0.01886239 -0.01564015 0.01505792 194715.42632311 -491533.28315085 267904.68644555
176 1 27.360257 16.843403 15.724451 -0.02657919 0.02433560 -0.03771214 4404600.13605331 4860767.63792834 2667433.89081764
177 1 23.766588 9.564946 21.065866 -0.01163253 -0.02052135 0.05070351 -0.00151602 0.00141224 -0.00162211
178 1 8.754401 24.480044 2.490316 -0.02325691 0.00019641 0.00477897 0.00027837 0.00006308 -0.00007777
179 1 13.267830 31.230649 11.671662 -0.00414442 0.03370488 0.04034629 -0.00017001 -0.00016614 -0.00017550
180 1 29.998953 6.651499 29.104055 -0.05620502 0.03109797 -0.00850464 -0.83910976 -1.69218225 1.94471983
181 1 20.665934 4.866243 10.116591 0.01802263 -0.01092885 -0.04393911 0.00054887 -0.00041904 -0.00213754
182 1 18.561520 28.127030 18.407363 0.05069951 -0.05885443 -0.01089278 0.00047865 -0.00087061 0.00089048
183 1 3.376630 1.138720 2.120913 0.03070623 0.02068421 -0.00948322 0.00168468 -0.00037744 0.00130544
184 1 8.762714 18.091468 20.212445 -0.01974701 0.01959217 -0.01447698 20.73432485 56.04890563 140.17355021
185 1 28.427310 15.137365 2.708121 0.04936464 0.04546092 -0.01792275 -0.00027332 -0.00010520 -0.00004376
186 1 8.035888 26.922014 17.573315 -0.03354006 0.03424013 0.06456435 5203.66272513 2018.48874049 1984.42676692
187 1 5.823257 26.670887 3.555157 0.00207904 -0.01586904 0.01360040 0.00003891 0.00017325 -0.00018003
188 1 5.557163 28.310965 10.208255 -0.00907169 -0.01328492 -0.01846077 -0.00000280 0.00004760 0.00002239
189 1 19.362150 14.196840 28.201822 0.00382645 -0.01025781 -0.04064427 0.00002359 -0.00009791 -0.00001628
190 1 18.201452 18.760978 10.761888 -0.04805902 0.01094564 0.00181821 -0.00010002 -0.00014104 -0.00001098
191 1 5.622415 7.282126 13.761018 -0.07417718 0.01375569 -0.04259050 0.05148341 0.10317617 0.06456872
192 1 31.264813 29.454333 23.200494 -0.02756398 -0.00317667 -0.00923514 0.00022909 -0.00027621 -0.00029734
193 1 15.923709 19.217643 27.530172 0.01072166 0.01189616 0.06743679 672.60623069 -2133.18846962 1802.78556496
194 1 16.897501 30.045889 29.866783 0.01284697 0.04693254 -0.00204516 4453988.96395111 -1158925.66249958 1543044.40343675
195 1 27.507502 23.897382 20.091210 -0.01976212 -0.00291897 -0.02331312 0.00170461 -0.00003528 -0.00130842
196 1 2.304551 5.791900 8.293038 -0.06450582 0.00267494 -0.02759597 -0.00025952 0.00012996 -0.00017021
197 1 29.115183 5.973243 26.705442 0.04163674 0.04033128 -0.03516634 0.02306102 0.01881475 0.06333113
198 1 6.273566 10.767541 24.443206 -0.00480361 0.00672437 0.04532814 -0.00023247 -0.00015530 -0.00030172
199 1 21.529121 13.314688 27.747181 -0.00998619 0.01529434 -0.03379210 0.00000666 -0.00002917 -0.00006677
200 1 11.420241 26.002884 15.237563 0.03114730 -0.03067402 -0.00158449 0.00102464 0.00011166 -0.00073205
201 1 27.572457 21.985644 25.589690 -0.00859795 0.01108563 -0.02561859 -4.38133102 -3.30789678 -5.51380328
202 1 6.621656 0.818348 30.999599 -0.00470082 -0.04226370 -0.03766359 0.49354086 -0.06986666 -0.03348164
203 1 11.248453 21.437637 10.845566 0.02268826 -0.01371649 -0.01988582 -0.00058338 0.00162868 -0.00190472
204 1 27.785721 13.349080 27.476781 -0.00075730 -0.01158369 0.04300215 -0.00026164 -0.00013441 -0.00005797
205 1 15.793144 5.766295 1.627416 -0.03337454 0.03677218 -0.01018289 -6987.67261175 761.71341288 -12382.85735415
206 1 6.778187 13.056384 16.246883 0.04029167 -0.03789516 0.01896662 -0.00170976 0.00033686 -0.00051081
207 1 15.530641 7.699192 5.168048 -0.01794191 0.01188603 0.02606942 -0.00020095 0.00071806 0.00132369
208 1 6.533646 15.953109 23.597230 0.01261379 -0.01234732 -0.03701559 0.00260457 -0.00141918 -0.00248978
209 1 8.073183 1.633810 14.140980 -0.03009047 0.07913069 0.01121349 0.00095020 -0.00072407 0.00190322
210 1 24.016088 22.030567 21.724898 0.01886128 0.02230962 0.01704419 0.16743431 0.47472326 0.04057522
211 1 1.396540 11.841837 0.042108 -0.04619148 -0.04738835 -0.01629403 -22.32538846 64.76470710 -18.33945586
212 1 12.421999 3.566516 21.527687 -0.04036565 0.03523707 0.04910273 -0.00010549 0.00002525 0.00000476
213 1 1.921906 7.671599 9.240843 -0.05023345 -0.00830592 0.01824393 -0.00004518 0.00015699 0.00006826
214 1 14.831308 5.978177 12.137751 0.00428873 -0.02037430 -0.01992188 -0.00012972 -0.00003149 -0.00012004
215 1 10.812494 22.805174 31.431526 0.01766009 0.00150786 0.01622546 9195.07418506 -11102.39593744 -16994.28168554
216 1 13.386898 16.124055 16.418486 -0.04152940 -0.01499596 -0.01419483 -0.43081163 0.36352102 0.51710954
217 1 3.964589 19.332393 17.726827 0.04686484 -0.02578390 0.00442171 2180.68328648 47025.98574040 -1252.27450545
218 1 10.092855 11.536505 5.370625 -0.01083653 -0.02284362 -0.00551252 0.25976971 0.22770677 1.12103726
219 1 23.918899 23.903648 7.426521 -0.04814998 0.04297413 -0.00335808 -11238200.16451574 6790839.28348059 659433.72995231
220 1 1.314531 28.890749 10.677207 -0.02244787 0.04657780 0.02978501 0.00035190 -0.00033680 -0.00039391
221 1 0.436650 0.372519 15.040429 -0.00504607 0.03182753 -0.00666422 -0.47511109 -0.03910883 -0.53074408
222 1 29.731307 0.060315 8.577689 0.02201494 -0.01747975 -0.00705887 0.00087831 0.00183277 -0.00029900
223 1 6.919174 10.085302 8.366966 -0.04151749 -0.00651297 -0.01679987 74245.78038615 -327270.79267675 343745.20392358
224 1 6.956143 20.144381 26.606401 0.01686446 -0.03237424 0.03047791 -0.18985560 0.07728237 0.15322980
225 1 19.247291 12.145371 19.565333 0.02587422 0.00322892 0.04658299 0.00006608 0.00001073 0.00005843
226 1 3.067821 0.271229 4.512787 -0.01190990 -0.00514719 0.01693419 0.00006918 -0.00018326 0.00024695
227 1 0.059239 29.274238 2.242864 -0.00984139 -0.00247011 0.03503721 0.00013264 -0.00058819 0.00029680
228 1 2.920947 26.181568 7.994891 0.00150830 0.01340686 -0.04385090 -1543.72356034 917.51788459 -84.83028165
229 1 4.113757 10.402019 23.516475 -0.02165082 -0.01538292 0.01298565 -0.00005919 0.00005470 0.00010737
230 1 15.331718 20.443889 15.382379 -0.00578646 0.02902057 0.02702276 0.00177723 0.00048758 0.00021711
231 1 12.293317 11.208689 23.305943 -0.06976723 0.02305942 -0.02127205 0.00016664 -0.00028115 0.00016295
232 1 18.790284 28.127700 19.239559 0.00887573 -0.00514548 -0.02352855 58923.16632959 96620.44903120 -10709.00198613
233 1 27.605777 22.369306 3.794634 -0.04575426 -0.03110334 0.05682120 0.00028382 0.00003746 -0.00012110
234 1 21.459323 17.997876 27.135050 0.01908953 0.00323767 -0.02576079 0.00002939 -0.00015109 -0.00006648
235 1 26.758147 9.902820 4.163833 -0.00496236 -0.04048984 0.04993842 -0.00014965 0.00019233 0.00013253
236 1 4.867558 14.914201 0.874767 -0.00469457 0.01610883 0.03509223 0.00043931 0.00043970 0.00009619
237 1 13.080426 27.405795 16.183831 0.02437086 0.03208446 0.03227209 -0.00024012 -0.00080475 -0.00036193
238 1 9.561325 5.460352 2.776555 -0.05580903 0.01946639 0.02951312 36.16367332 2.16812140 -4.61021796
239 1 30.230298 8.439362 30.513343 -0.00167155 -0.04014438 0.00385391 -0.09459933 -0.53004107 -0.24067244
240 1 4.120519 12.373871 7.890103 -0.03221122 0.07519722 -0.02405329 -0.00198134 0.00135382 -0.00030967
241 1 14.352719 9.339974 5.745119 0.05824708 -0.00342562 -0.06452300 0.00046869 -0.00018568 0.00033968
242 1 2.064690 1.556173 13.777826 0.03615096 -0.00837233 0.01688579 0.00150665 0.00069838 0.00102392
243 1 26.018994 20.446215 14.581135 0.00504809 -0.02600705 -0.03232752 -0.00042100 0.00144156 -0.00049114
244 1 9.683154 4.379328 5.536132 -0.00149290 0.04664511 0.00432690 -0.00022652 0.00250108 -0.00682223
245 1 11.433842 5.374605 31.029716 -0.03602850 0.03748046 0.00358053 0.00059298 -0.00001713 -0.00202900
246 1 24.122205 4.761016 16.164482 -0.00195764 0.02375782 -0.00088349 0.00049000 0.00002704 0.00039229
247 1 1.265109 15.780753 27.134994 0.03049926 0.04145226 0.01339141 -4.62935184 -2.25934713 9.19042384
248 1 15.353732 28.514582 15.785775 0.01000885 -0.01064096 -0.02873834 -0.00007983 0.03006594 0.01677482
249 1 31.521323 16.532068 16.067530 0.00509590 -0.00322664 0.03711379 0.00041071 -0.00046177 0.00122921
250 1 17.564329 2.641681 26.332226 0.03542055 -0.02999668 0.01495195 0.01036886 0.04166407 -0.00504303
251 1 12.376760 15.963557 17.414153 -0.05006491 0.02774131 -0.00562035 -115.35815856 546.61162706 232.66015487
252 1 11.849851 20.297665 23.775378 0.01027311 0.01778358 0.04479570 -4709.04566451 -11243.82907990 -890.24317818
253 1 21.694487 18.960498 26.188941 0.00311323 -0.02154296 0.01119661 0.00014513 -0.00006827 -0.00008626
254 1 30.257883 13.548345 9.159438 0.00999038 -0.01172442 0.00426034 -0.00010417 -0.00025650 -0.00007564
255 1 13.689496 23.202611 23.391485 0.02807771 0.02379602 -0.01637618 0.00131761 0.00234139 -0.00029763
256 1 0.261937 5.995358 13.054703 -0.02319632 0.01098738 -0.00844940 -0.00009001 0.00010808 0.00003555
257 1 29.860473 11.609090 26.631493 0.02642006 0.02333245 -0.01393495 -432.48397824 -71.44217153 -48.96894994
258 1 10.187609 11.018503 0.207914 -0.01163386 0.01601729 -0.02777457 0.00007219 0.00010070 -0.00057760
259 1 18.531404 0.290901 13.345455 0.01674378 -0.01135203 0.00872748 0.00467158 0.00564290 0.02315878
260 1 15.004024 16.942361 2.005341 -0.03019931 -0.00316384 0.01333916 -0.00073283 0.00097291 -0.00061587
261 1 23.169958 25.832128 23.753831 -0.03497396 0.01102956 -0.04850320 0.00473286 -0.00492263 -0.00601060
262 1 12.233939 9.137402 19.959909 -0.01134575 0.02072769 0.04426066 -3734428.10103982 -4420412.18945737 3719031.17156156
263 1 12.360174 20.956278 9.478096 0.01962552 -0.00735046 -0.01420988 0.00000212 0.00054247 -0.00107894
264 1 24.825203 4.842484 23.995671 -0.00502794 0.02840967 -0.00217941 887.25827599 -375.94345477 54.23935273
265 1 17.706157 9.289461 8.968097 -0.02352300 -0.01552960 -0.03318684 -0.00019318 -0.00001786 -0.00007922
266 1 4.290885 18.991372 26.139896 0.00865416 0.00067610 -0.01770635 0.00726771 0.01498205 0.01418743
267 1 2.322326 19.105674 8.448778 -0.02154241 -0.02196553 0.01541901 0.00041833 0.00066951 0.00034314
268 1 3.848721 9.586975 10.322753 -0.01960851 -0.01077271 0.02926552 -464.32933442 -573.97236366 -603.85047757
269 1 13.712350 16.312664 23.509707 -0.02240948 -0.02062959 -0.02820265 23484839.17091792 -17370374.62625343 -13727023.42945061
270 1 10.392399 24.835266 1.994418 0.06728363 0.03447433 -0.01797891 -329.66938923 -126.95855696 252.19886222
271 1 5.238830 27.696123 1.069700 0.03905575 0.01720467 0.01062093 -0.00021249 0.00006450 -0.00000598
272 1 8.267313 26.892511 20.238973 -0.00589919 0.07539562 0.00862135 -183.02463865 776.48435562 -239.74478094
273 1 26.056376 3.113232 17.438868 -0.01052659 0.02603212 -0.04175148 -5.88334055 -2.97852758 -0.46257311
274 1 24.232919 11.975719 23.111427 0.00952403 -0.03680413 -0.00197107 -29.96271428 -90.33452229 -14.37541064
275 1 20.851790 23.329984 24.360727 0.02385709 0.02528151 0.00002627 -0.00048279 -0.00017029 0.00018883
276 1 15.757294 23.194696 24.308423 0.08059408 0.00173394 -0.05021448 0.00034549 0.00065797 -0.00031228
277 1 15.969980 11.039590 11.786453 -0.00161462 -0.04197457 -0.03065906 0.00005602 0.00005110 0.00004499
278 1 2.802678 22.186400 5.069095 -0.00748847 0.00748211 0.01669717 9314.79656794 -13384.00760036 28286.34353443
279 1 16.588056 26.941944 23.846951 -0.01650091 0.00836584 0.00316333 -47901.41442860 259538.61047587 88932.70068016
280 1 24.365074 18.631577 7.237803 -0.02463342 -0.05728667 -0.02792096 0.00073908 0.00149179 -0.00140300
281 1 13.846221 15.076616 23.759692 -0.00882701 0.03228286 -0.03920801 -160.18903203 1479.04070468 -299.12964391