LAMMPS data file for silica system 24

4855 atoms
2 atom types

0.0 42.974154 xlo xhi
0.0 42.974154 ylo yhi
0.0 42.974154 zlo zhi

Masses

1 28.0855  # Si
2 15.9994  # O

Atoms  # atomic

1 1 40.221813 33.077809 8.103034
2 1 9.866077 19.794647 11.620711
3 1 3.641113 2.260313 35.116341
4 1 14.399856 36.128807 27.105595
5 1 0.305149 3.546304 30.284005
6 1 21.092630 34.394855 33.579414
7 1 39.390253 1.370597 10.493797
8 1 2.815751 41.141726 41.840409
9 1 14.889605 2.277055 33.643948
10 1 8.827463 3.781642 3.163423
11 1 18.675836 33.219386 31.410534
12 1 34.403228 8.370029 24.148742
13 1 9.618988 19.034048 14.787058
14 1 20.821082 32.913397 9.900330
15 1 4.119292 12.374890 4.894965
16 1 11.547405 31.347674 30.353888
17 1 17.465226 41.475774 10.424503
18 1 31.076583 24.552087 23.456001
19 1 20.947139 10.900919 16.805569
20 1 25.155390 26.883002 24.072293
21 1 20.498474 27.425162 35.339699
22 1 9.901228 20.757301 5.266581
23 1 6.097597 18.648612 27.761470
24 1 29.785242 28.839704 20.429676
25 1 41.355940 11.978728 40.416852
26 1 19.166065 37.950881 12.370255
27 1 21.958253 32.067638 4.550077
28 1 26.517052 5.354113 15.228269
29 1 17.514981 28.353353 3.697461
30 1 31.974357 19.150294 4.021423
31 1 24.908382 14.377312 12.750908
32 1 17.724701 39.422516 32.697224
33 1 10.329266 5.041229 17.412689
34 1 39.189195 37.196674 0.685766
35 1 41.047417 33.479284 9.432883
36 1 21.932849 39.086969 37.197640
37 1 2.825932 13.365248 24.743366
38 1 6.815934 14.484521 19.586444
39 1 17.206147 40.111704 23.397759
40 1 13.969563 10.012340 14.715530
41 1 12.549481 22.528314 27.727292
42 1 7.419534 37.320678 10.035189
43 1 28.630731 1.598543 35.185542
44 1 31.468366 20.935761 7.120749
45 1 38.520363 25.083852 20.879316
46 1 16.040860 40.592795 25.748565
47 1 41.289731 13.746949 41.670382
48 1 9.957939 5.794268 32.832553
49 1 12.903401 30.506002 14.418836
50 1 21.842530 22.513446 28.410396
51 1 9.167667 5.662229 2.805936
52 1 11.627596 1.710744 17.839617
53 1 10.774571 41.475965 31.558203
54 1 31.445928 8.994917 10.045489
55 1 21.211615 18.779613 14.946410
56 1 19.143667 1.970570 28.100419
57 1 6.533431 20.051615 7.170514
58 1 32.488598 29.612033 30.258131
59 1 39.706645 15.589080 36.339915
60 1 27.297505 26.788869 40.584191
61 1 2.833434 21.727981 14.399901
62 1 0.813367 12.025933 9.918314
63 1 0.190241 23.570179 38.923567
64 1 38.800490 31.975274 9.305700
65 1 6.847175 40.153974 21.182861
66 1 14.960414 22.719839 7.722429
67 1 16.418394 26.098466 3.145493
68 1 42.108496 27.109273 10.024202
69 1 29.252376 0.624667 3.409592
70 1 26.208494 23.484924 6.441704
71 1 30.024461 32.018435 41.737165
72 1 36.776874 6.906502 2.326053
73 1 4.404279 29.920838 30.050795
74 1 27.545345 14.442091 3.713910
75 1 1.501828 29.987859 37.093374
76 1 9.857129 34.012571 13.096558
77 1 4.684748 1.011344 23.449722
78 1 32.603601 27.853801 18.530332
79 1 36.862050 15.738185 10.322018
80 1 37.780717 31.823307 22.465345
81 1 3.487936 21.354636 18.241509
82 1 40.923478 16.440621 15.624153
83 1 8.604187 3.103253 21.191514
84 1 29.799798 27.167303 17.862154
85 1 24.063114 5.343619 11.662456
86 1 25.395432 1.911190 4.128687
87 1 12.378800 5.592494 0.994357
88 1 5.757460 36.218463 6.938807
89 1 6.034238 33.966060 25.663692
90 1 33.319110 23.521752 31.712571
91 1 33.148444 7.045883 40.164851
92 1 8.506896 41.613919 18.012356
93 1 40.286694 17.958477 34.190691
94 1 8.811936 23.828026 12.677768
95 1 31.207174 15.163514 13.492577
96 1 17.851456 38.037684 1.188255
97 1 30.110209 21.365395 1.665928
98 1 20.838441 10.855054 2.385504
99 1 14.196647 7.854456 41.744079
100 1 21.544996 28.957427 34.877016
101 1 39.408085 34.422670 5.341777
102 1 2.179784 35.524256 33.151800
103 1 31.983732 14.058241 19.651863
104 1 11.984913 5.713673 15.514791
105 1 9.213777 21.828453 35.895402
106 1 36.541613 21.050956 22.782368
107 1 19.272415 13.653399 33.935323
108 1 1.929758 41.721779 14.044425
109 1 24.893946 41.724946 13.355203
110 1 38.419196 9.202106 33.157651
111 1 22.841561 39.698666 38.921312
112 1 17.002708 18.197838 23.026058
113 1 26.857438 20.855121 36.069717
114 1 36.460981 16.671033 5.323348
115 1 36.654647 32.539581 11.833802
116 1 27.115739 34.687976 1.281162
117 1 9.137047 25.182537 42.719398
118 1 0.548672 7.448398 32.202942
119 1 0.299116 42.472325 12.304814
120 1 26.228905 13.255728 27.851294
121 1 11.644174 17.633656 2.218290
122 1 11.198576 14.969178 37.006170
123 1 4.325246 0.267229 28.327571
124 1 20.000466 36.744313 18.930312
125 1 27.988182 40.281009 22.468486
126 1 6.050258 0.010400 39.183835
127 1 29.687701 27.040311 28.934733
128 1 31.090782 11.963930 17.185023
129 1 27.937633 31.328687 35.412276
130 1 15.949055 20.476999 31.975278
131 1 40.163801 21.195519 27.276106
132 1 41.145940 8.882812 40.954316
133 1 3.737798 36.594835 29.754649
134 1 20.586156 37.587964 26.593864
135 1 18.647395 10.065057 22.363088
136 1 8.149447 24.209601 29.858078
137 1 2.167822 31.509293 18.613369
138 1 27.096885 24.762780 29.968961
139 1 31.782103 39.175395 35.159887
140 1 8.665402 10.377252 29.810087
141 1 6.432078 38.054919 13.678979
142 1 22.239789 36.699518 3.897118
143 1 15.684546 33.129293 15.622177
144 1 26.591933 23.017740 25.753347
145 1 26.773119 24.112160 40.549308
146 1 10.386010 8.244378 24.134100
147 1 37.069478 4.437873 21.943802
148 1 5.583718 34.869612 29.024648
149 1 4.126795 25.729274 23.265260
150 1 6.612173 4.572027 40.250521
151 1 12.907094 26.243433 41.409538
152 1 22.375104 21.844832 14.538230
153 1 3.440013 40.169072 28.874519
154 1 8.188185 33.989388 28.671730
155 1 24.778935 13.972533 12.575352
156 1 0.741853 10.467926 27.284269
157 1 16.275020 27.685679 0.884232
158 1 13.874912 40.999791 23.360850
159 1 30.367569 22.038274 37.283506
160 1 13.323200 19.028345 0.808573
161 1 16.792432 25.126961 1.705528
162 1 13.782684 22.951076 42.905066
163 1 32.148222 16.433730 5.445697
164 1 11.861792 33.040609 21.620194
165 1 25.160601 16.202936 15.551008
166 1 30.176998 12.199039 6.986882
167 1 9.138665 25.720131 2.988434
168 1 15.632338 25.715300 5.652301
169 1 30.980680 27.132587 36.447663
170 1 35.667638 2.861204 15.172908
171 1 41.713437 23.152073 5.692420
172 1 5.811993 38.486447 15.046787
173 1 17.449863 41.538085 31.216367
174 1 17.443706 4.949930 33.445109
175 1 21.027369 14.615544 36.110837
176 1 19.776761 41.236278 1.616289
177 1 33.907735 17.001551 20.076127
178 1 27.836851 15.188529 15.269972
179 1 0.608186 23.192416 4.078071
180 1 23.046762 12.652085 19.485474
181 1 30.021776 21.334410 30.497708
182 1 9.585126 23.535971 1.325155
183 1 36.369770 38.099205 39.433364
184 1 26.089178 39.685641 15.508769
185 1 22.797248 38.087455 34.978628
186 1 7.465144 1.039768 23.645947
187 1 25.108833 12.205192 7.168049
188 1 15.289391 27.153161 10.739357
189 1 14.990343 15.344451 30.444886
190 1 14.571139 20.489214 25.510245
191 1 4.080281 25.471928 7.676984
192 1 33.252801 2.576497 12.075521
193 1 16.568616 39.767306 7.060626
194 1 41.143757 39.078815 9.031150
195 1 39.900150 36.117462 24.432581
196 1 0.301763 41.750692 12.124214
197 1 30.068644 26.780341 33.067087
198 1 21.094513 35.951700 35.516496
199 1 7.854469 22.145031 30.575098
200 1 15.351095 40.135187 12.034926
201 1 3.392088 7.634285 16.385728
202 1 40.801113 28.152795 38.400774
203 1 0.455824 4.062202 20.465510
204 1 10.731246 2.167216 28.044293
205 1 27.307932 13.400781 15.122611
206 1 3.935360 6.062368 6.954603
207 1 10.469957 21.546345 34.880751
208 1 37.686256 17.577944 0.564482
209 1 17.726115 28.859975 42.587272
210 1 22.414196 39.264060 1.566120
211 1 13.711381 15.616896 23.059968
212 1 17.565491 16.458210 37.725691
213 1 3.714146 42.837861 28.313631
214 1 37.652847 7.342521 35.815990
215 1 34.657822 18.329721 13.779449
216 1 5.445428 25.599810 9.808163
217 1 8.325275 24.415225 29.542646
218 1 33.908179 32.307076 21.995483
219 1 2.144004 30.966110 3.330849
220 1 6.146335 19.803784 29.584124
221 1 3.640115 42.149154 23.040814
222 1 7.932651 26.477173 15.504737
223 1 12.218933 16.280449 39.440228
224 1 32.046897 23.877474 2.606107
225 1 26.229184 27.948783 10.685500
226 1 24.951843 8.867628 36.903677
227 1 34.790574 19.800196 34.784077
228 1 36.764127 24.563845 35.198279
229 1 0.105071 22.091813 25.110420
230 1 41.244462 35.125754 33.557425
231 1 29.992325 5.881913 2.934354
232 1 19.213530 2.914339 25.935365
233 1 14.934135 3.221079 12.340857
234 1 26.118050 4.682463 18.885984
235 1 11.030055 35.508032 16.877693
236 1 22.489712 13.634397 0.754239
237 1 14.596922 41.867054 13.494303
238 1 33.357025 7.840398 19.550752
239 1 27.580356 36.935236 16.387637
240 1 21.463954 25.889823 35.900192
241 1 24.391937 20.109558 36.833114
242 1 32.374714 20.937561 7.209081
243 1 35.826628 19.088200 12.627148
244 1 30.758836 35.256081 10.582109
245 1 31.402038 14.933217 8.186203
246 1 41.832838 13.853980 41.868477
247 1 32.400805 0.296782 2.990963
248 1 26.419521 2.845546 21.819097
249 1 6.060452 2.725380 15.599510
250 1 24.307078 6.109525 29.242449
251 1 32.176531 0.564441 33.893561
252 1 38.189849 37.939382 7.491284
253 1 5.361770 26.242292 13.527534
254 1 30.773261 23.325654 31.403910
255 1 18.786440 28.634638 14.356530
256 1 12.932270 2.003258 33.296896
257 1 7.600174 33.585773 19.790126
258 1 10.070917 20.943177 1.443806
259 1 3.303860 34.077162 14.667136
260 1 22.634822 37.321913 25.611168
261 1 18.880708 6.634802 11.729064
262 1 17.898013 28.965725 42.527954
263 1 9.763219 17.720881 15.534146
264 1 22.883166 12.890264 17.399425
265 1 32.338437 38.361347 36.401147
266 1 17.377861 34.383714 33.267693
267 1 37.339698 22.865061 42.503145
268 1 34.915043 23.973613 16.506485
269 1 6.453528 39.857462 39.200678
270 1 9.494722 22.488444 16.087592
271 1 28.061180 19.845915 3.021452
272 1 2.633369 12.699302 28.166979
273 1 28.233934 24.195390 2.725214
274 1 27.006224 12.119462 28.296610
275 1 37.606974 1.178071 2.703399
276 1 3.101659 9.415788 12.370719
277 1 4.424017 11.978307 39.648490
278 1 41.392802 25.957524 23.204371
279 1 42.438481 41.216373 30.479804
280 1 21.421516 26.323777 8.757367
281 1 3.333747 27.483042 34.152566
282 1 39.869461 6.145329 34.514496
283 1 37.487530 13.974817 12.328940
284 1 33.452181 42.101516 34.013409
285 1 4.175936 24.263995 6.676217
286 1 5.361437 22.004954 36.354009
287 1 25.446494 39.812040 28.724260
288 1 6.456853 10.054434 33.668441
289 1 8.497374 13.875925 12.321336
290 1 27.359741 20.551180 5.635482
291 1 12.771561 41.152775 21.789233
292 1 3.418876 0.802389 2.848736
293 1 12.506693 20.893268 35.530117
294 1 20.947093 28.850827 28.048459
295 1 36.132053 39.386606 0.030248
296 1 19.925977 19.015673 42.182040
297 1 36.947598 15.425504 14.472132
298 1 42.362585 35.250506 16.386954
299 1 24.216372 38.452722 37.770640
300 1 13.721547 0.442797 0.053501
301 1 42.344063 20.208505 6.188157
302 1 34.461194 36.902905 20.715981
303 1 1.006788 33.280842 10.007580
304 1 20.394039 14.710941 18.175564
305 1 31.050420 16.257735 4.991416
306 1 1.576990 32.887737 21.292277
307 1 20.443932 4.277486 10.581266
308 1 3.485851 30.181182 38.626247
309 1 41.715786 5.702907 38.569598
310 1 13.503781 14.872168 18.267111
311 1 2.321299 40.938630 5.845355
312 1 23.008961 4.221107 1.783581
313 1 15.385466 20.243858 33.460834
314 1 29.112404 30.211375 17.180761
315 1 38.310528 19.634957 12.687649
316 1 29.190627 39.873234 1.117985
317 1 13.905282 7.368970 9.214209
318 1 20.573418 31.423196 10.465812
319 1 9.032245 1.701504 10.210034
320 1 29.091938 3.202426 19.543443
321 1 38.686298 16.433802 38.619040
322 1 14.181384 28.670982 18.393000
323 1 31.888971 30.635302 10.955042
324 1 3.104523 40.145122 22.294008
325 1 14.216975 20.917177 40.739081
326 1 2.907184 6.801298 26.799186
327 1 40.009960 37.681229 27.209294
328 1 20.684808 39.718192 23.458320
329 1 19.027960 35.292098 17.902580
330 1 5.984495 26.329171 0.643635
331 1 16.390596 22.278916 3.318937
332 1 25.958427 26.156161 4.014646
333 1 19.569307 21.106639 39.578437
334 1 34.372771 35.808483 41.952262
335 1 30.351431 42.439909 6.281953
336 1 16.670023 25.545913 26.748488
337 1 7.182495 37.234059 8.479712
338 1 8.841658 24.821592 31.446955
339 1 35.934786 38.214048 10.947146
340 1 2.655268 38.796656 24.746338
341 1 19.265161 6.685335 21.453920
342 1 37.366459 38.512841 7.904377
343 1 37.824825 7.590541 38.839533
344 1 10.542544 35.635853 7.983459
345 1 8.269129 24.810064 9.044371
346 1 23.175437 2.140539 25.089186
347 1 0.974328 38.606192 12.836366
348 1 14.830906 13.657923 33.662693
349 1 20.037761 34.041537 0.658913
350 1 13.774206 33.669698 14.486325
351 1 39.651862 25.643924 1.257662
352 1 19.124620 27.992180 9.217798
353 1 10.410762 20.671479 4.153526
354 1 17.953973 20.269039 41.719600
355 1 38.199395 4.000072 24.353386
356 1 39.125689 15.549824 34.728170
357 1 40.868879 13.301701 35.547077
358 1 26.573141 5.782008 28.658059
359 1 11.447238 19.262624 21.484012
360 1 26.197214 35.886415 37.464612
361 1 29.685745 29.259214 33.580351
362 1 4.938297 7.578958 29.666521
363 1 42.540379 8.048177 39.344502
364 1 30.112811 8.807278 11.506598
365 1 16.019739 18.029550 19.697237
366 1 14.383677 9.662284 16.911179
367 1 9.194007 23.975742 40.552502
368 1 20.419017 19.257991 26.814603
369 1 40.353126 24.621644 3.539471
370 1 6.528824 26.560824 39.867911
371 1 7.001725 17.346016 31.685848
372 1 1.526790 19.254914 17.232234
373 1 32.659855 9.765782 39.684242
374 1 17.967611 17.317453 18.642458
375 1 23.629072 27.456083 36.806038
376 1 33.929384 40.666325 9.376203
377 1 40.012402 40.643228 31.000389
378 1 2.157459 24.338274 15.127824
379 1 4.232081 24.632789 11.413703
380 1 39.937415 4.746781 20.487290
381 1 13.210436 15.893446 0.441493
382 1 38.909741 6.043861 12.047544
383 1 4.340998 8.907559 28.734390
384 1 1.810544 14.410072 17.429544
385 1 9.282261 1.892260 15.497931
386 1 9.233248 34.045899 0.611874
387 1 15.407986 16.781454 10.808754
388 1 12.343389 16.099484 9.421390
389 1 0.455264 27.935295 35.025165
390 1 9.568881 7.080416 9.595374
391 1 35.336622 39.160015 40.874630
392 1 38.297933 13.295106 7.519752
393 1 0.296656 33.926714 25.635493
394 1 23.134470 33.606588 36.675169
395 1 42.205917 2.783512 25.030766
396 1 15.648985 17.364165 34.758059
397 1 19.522972 24.711332 33.680644
398 1 15.461819 6.004284 30.369102
399 1 34.854700 18.633352 30.362529
400 1 4.004313 33.050978 29.119312
401 1 39.830492 11.199211 17.270383
402 1 21.226538 36.881018 41.719289
403 1 26.844678 4.831874 34.664664
404 1 22.156558 32.551457 18.504787
405 1 6.744523 28.251820 15.617543
406 1 1.480081 33.703680 28.734844
407 1 9.652698 16.868581 39.324925
408 1 29.381528 10.978655 22.661317
409 1 34.101246 17.688312 32.468004
410 1 11.463844 24.664251 16.728332
411 1 40.114944 9.904421 6.437269
412 1 24.625977 1.784700 34.784435
413 1 33.869034 32.693123 16.772735
414 1 35.129881 3.204062 30.195908
415 1 19.936066 26.400106 12.662638
416 1 13.897508 7.082379 28.630395
417 1 3.638244 37.987646 20.083134
418 1 1.300561 35.763862 9.700073
419 1 7.447226 39.890250 28.739770
420 1 22.839834 13.295660 12.649136
421 1 4.520268 9.468459 15.462241
422 1 38.720230 37.017299 0.128466
423 1 18.395744 39.440946 6.266581
424 1 22.510760 14.830560 39.378407
425 1 10.539955 31.015941 3.798018
426 1 5.814114 36.135630 35.422972
427 1 33.615366 4.039041 37.422727
428 1 5.427343 36.046333 5.015079
429 1 22.306734 10.935770 9.613800
430 1 34.110908 5.971177 26.141155
431 1 22.083296 37.924745 28.692102
432 1 3.061264 30.800842 25.425612
433 1 23.547272 28.272918 15.242045
434 1 31.027787 20.855588 10.271277
435 1 2.570629 17.994220 19.258645
436 1 30.473564 32.051946 22.631074
437 1 1.274229 26.145536 37.369438
438 1 1.703098 38.771836 9.980899
439 1 8.182328 0.935562 27.042213
440 1 29.963638 33.555673 7.032661
441 1 24.940197 17.489620 11.108426
442 1 1.940101 31.553578 14.466810
443 1 33.055144 14.211003 27.523145
444 1 7.093330 3.303846 24.173554
445 1 19.192624 41.540679 17.083117
446 1 1.320702 7.858213 1.666960
447 1 12.972846 2.752160 7.039560
448 1 14.620871 26.660157 33.592336
449 1 1.549434 37.208605 15.555098
450 1 28.206747 3.972136 7.305112
451 1 39.542474 23.923607 13.203682
452 1 28.657186 27.597939 21.624318
453 1 30.152159 12.267203 6.102254
454 1 32.333296 2.586158 32.693215
455 1 12.915087 0.938433 14.449473
456 1 20.924889 8.993297 30.814694
457 1 23.799894 1.634147 6.299609
458 1 34.565883 31.958944 15.236572
459 1 41.496531 32.791195 34.053747
460 1 20.182013 34.031970 25.640079
461 1 16.420237 33.247480 3.921388
462 1 15.395832 42.534130 37.095886
463 1 18.801783 33.908468 22.212559
464 1 3.017959 13.085627 14.867313
465 1 19.724974 17.051235 36.227539
466 1 41.510501 5.274376 32.546108
467 1 39.075973 6.378749 28.124335
468 1 31.952305 40.853718 15.011652
469 1 4.579619 4.929529 38.075787
470 1 40.449144 13.221838 39.545646
471 1 40.175598 22.617806 25.574353
472 1 42.223831 4.699710 23.512190
473 1 36.591931 16.740206 35.684743
474 1 7.826362 28.786564 10.951378
475 1 2.976264 15.420341 30.979553
476 1 1.989547 8.322870 17.535279
477 1 31.765901 2.702627 27.038170
478 1 24.935716 25.941611 32.609542
479 1 42.651101 37.538181 21.797295
480 1 8.458659 40.659534 23.387461
481 1 39.726638 8.040782 21.519848
482 1 20.296968 14.397236 12.244909
483 1 8.344575 10.799264 1.236369
484 1 37.374798 40.785581 35.663117
485 1 42.385774 10.603987 35.416873
486 1 8.147999 26.289194 32.438108
487 1 21.230702 24.432397 8.227471
488 1 21.611040 7.289945 32.094207
489 1 27.247989 1.119327 34.062544
490 1 7.208527 5.347868 4.928242
491 1 32.599989 2.745273 31.048854
492 1 6.054328 32.661943 8.563302
493 1 16.982078 20.229807 6.517338
494 1 39.361251 30.005612 10.406733
495 1 14.960149 15.801642 30.072973
496 1 29.895177 24.620078 37.753480
497 1 35.666148 4.462157 9.807744
498 1 39.989649 22.048554 4.013444
499 1 3.139473 16.443959 1.956472
500 1 20.123172 9.753723 25.705439
501 1 9.347273 3.827022 19.404086
502 1 27.085319 28.090696 17.090566
503 1 7.149272 25.152324 11.418789
504 1 37.918348 33.946963 30.942021
505 1 40.710293 30.756239 6.952969
506 1 22.443752 6.160925 37.577278
507 1 30.917443 7.648578 40.662271
508 1 5.657622 31.877430 19.352141
509 1 41.998998 7.986449 4.649072
510 1 39.948992 41.652009 6.137335
511 1 12.753287 6.749276 8.131260
512 1 36.721275 0.764004 36.825910
513 1 5.117870 5.687874 26.341069
514 1 36.604648 33.997958 31.830039
515 1 26.323003 4.124320 32.148938
516 1 4.021209 14.394924 9.025753
517 1 1.033048 2.040249 19.216683
518 1 18.713812 15.553313 15.791055
519 1 2.543105 3.824813 29.279620
520 1 16.561518 30.967211 24.399475
521 1 27.679310 36.443872 22.892663
522 1 3.512878 34.030364 4.421344
523 1 38.520832 12.323722 39.943108
524 1 29.577448 24.265121 19.894823
525 1 18.287555 1.196296 19.749452
526 1 14.050000 31.258428 9.733748
527 1 0.307829 4.041612 15.767329
528 1 29.591436 14.958284 10.567852
529 1 34.568185 12.414799 7.345053
530 1 20.520391 27.524105 3.342149
531 1 25.613420 5.873848 32.620197
532 1 39.087633 34.518677 4.687969
533 1 0.434093 11.386614 36.910309
534 1 1.139051 32.746208 5.694914
535 1 16.581610 39.324257 16.485608
536 1 17.201110 42.362427 26.435972
537 1 12.772313 26.261079 14.686838
538 1 17.670431 23.580155 0.517721
539 1 0.211445 38.600983 25.736217
540 1 36.990758 33.057479 12.213536
541 1 23.016000 25.857268 28.576088
542 1 9.018443 1.019324 24.391485
543 1 22.230393 35.244654 14.728800
544 1 10.207213 6.601188 27.888746
545 1 29.616811 24.067232 4.906556
546 1 8.745814 16.490993 13.982782
547 1 36.363357 2.799782 1.680275
548 1 16.576162 38.766022 22.283621
549 1 37.264426 17.024437 8.230475
550 1 12.716071 41.153387 25.350284
551 1 8.241148 11.736836 13.719756
552 1 40.769756 21.220713 24.586690
553 1 16.482982 15.715123 9.192066
554 1 35.557479 20.889173 36.438714
555 1 18.877338 24.739509 22.809473
556 1 41.843317 6.487356 38.153008
557 1 16.526883 14.321640 8.771047
558 1 0.513951 39.837465 12.478476
559 1 24.418940 42.185588 8.839010
560 1 16.084509 40.716349 24.208106
561 1 13.892331 14.282162 33.547692
562 1 33.317239 28.894155 27.585542
563 1 19.394690 2.242760 27.852482
564 1 7.373577 38.545871 20.689619
565 1 16.934566 8.429903 16.628947
566 1 32.459976 29.070016 27.462644
567 1 36.301258 23.217305 11.287615
568 1 23.861682 25.719026 8.656708
569 1 22.725386 2.352127 34.097287
570 1 20.935659 33.550129 17.906678
571 1 21.060886 14.115856 25.930583
572 1 1.935976 15.142293 12.512916
573 1 7.310466 37.474730 35.638018
574 1 36.071430 5.871524 21.340103
575 1 2.315677 20.704955 30.299442
576 1 1.130751 24.486491 30.631425
577 1 9.479713 28.816368 28.848116
578 1 6.909979 32.030677 29.837646
579 1 36.238747 13.776802 42.862363
580 1 22.178458 9.883395 8.333130
581 1 9.011457 17.065787 32.202277
582 1 12.778723 23.843830 17.351951
583 1 25.987203 17.942737 22.655550
584 1 8.498398 15.160141 0.837097
585 1 8.000542 10.081086 2.597460
586 1 32.821218 17.060334 14.419286
587 1 3.010274 29.665345 10.427827
588 1 22.139215 10.495003 7.880291
589 1 16.627401 6.117417 25.613176
590 1 10.402804 39.986070 0.292267
591 1 1.875647 14.192564 34.499973
592 1 12.142338 27.047694 25.221458
593 1 3.455882 12.382302 0.243777
594 1 24.737261 23.619454 1.727053
595 1 28.086866 7.391167 21.664095
596 1 0.065639 18.524411 32.988910
597 1 29.834187 1.381161 4.788517
598 1 25.777937 35.524660 39.346020
599 1 2.034812 11.727479 3.651265
600 1 17.213456 17.177407 42.943663
601 1 36.966047 27.993429 28.691696
602 1 37.612216 17.934964 15.858858
603 1 32.366671 0.416289 37.773057
604 1 2.059905 2.904768 21.979795
605 1 13.771483 16.171230 21.636411
606 1 22.203566 25.882597 5.632691
607 1 2.260464 0.322248 41.797404
608 1 0.686855 11.500884 23.413721
609 1 6.929519 3.841681 3.851932
610 1 12.262238 12.359822 9.276694
611 1 15.428136 10.408316 2.233079
612 1 0.869826 8.707816 36.515225
613 1 32.955622 24.905428 0.875423
614 1 31.642033 41.171899 1.764035
615 1 30.431396 7.407144 42.225549
616 1 19.580808 4.562208 40.263118
617 1 39.844621 4.946937 30.545933
618 1 31.480499 10.454635 33.277130
619 1 8.401927 21.464740 0.183212
620 1 11.113850 37.240508 11.882862
621 1 18.540193 39.410474 14.667251
622 1 19.592170 32.521331 33.041467
623 1 11.865613 10.141775 27.312507
624 1 2.246086 9.157780 3.970101
625 1 27.067801 11.573640 22.191513
626 1 2.686979 7.938722 24.282292
627 1 10.847849 5.110171 17.415637
628 1 14.532876 20.465187 41.608821
629 1 42.584849 14.790522 14.192827
630 1 23.450790 14.446431 20.556853
631 1 11.320367 25.365326 31.625156
632 1 5.499288 20.630594 23.960470
633 1 23.623271 32.127505 21.067537
634 1 22.748276 28.846511 7.851658
635 1 36.999178 25.208315 19.866697
636 1 10.279741 12.742187 40.217576
637 1 18.113250 41.239462 13.040983
638 1 11.514473 24.227908 16.897113
639 1 4.749206 22.935050 25.466644
640 1 38.924772 2.489873 6.362424
641 1 27.594760 21.761261 12.122136
642 1 27.721442 18.506674 8.839421
643 1 16.600835 42.315094 40.398490
644 1 1.427697 34.956352 28.216317
645 1 15.135704 33.858869 13.231757
646 1 18.811613 28.634626 8.908961
647 1 22.466761 28.484633 12.004906
648 1 37.053148 28.368395 4.451990
649 1 21.244965 20.811628 30.942569
650 1 9.937210 17.478784 23.188909
651 1 34.283737 34.531853 11.843123
652 1 40.038235 9.331528 33.939783
653 1 3.829452 20.755103 25.899918
654 1 41.704760 25.945520 31.132159
655 1 42.097741 4.162915 42.030213
656 1 4.394645 31.261817 12.923796
657 1 38.232598 8.027033 34.710205
658 1 40.308088 9.192532 3.655867
659 1 9.851076 20.140500 4.050920
660 1 2.304949 29.767977 1.525342
661 1 10.229371 20.426500 1.077297
662 1 31.089126 24.847354 9.603063
663 1 42.155957 17.039235 35.371358
664 1 18.993563 40.207696 13.602169
665 1 38.684608 7.051130 41.688985
666 1 3.328629 38.896751 23.475915
667 1 3.359090 0.584040 20.230417
668 1 6.672260 10.329806 22.106009
669 1 17.303024 1.872473 20.418256
670 1 10.186610 16.302612 9.516441
671 1 34.503555 0.155979 22.844416
672 1 3.699397 8.528119 19.731474
673 1 19.862333 15.339140 5.457673
674 1 30.274185 28.516596 7.178691
675 1 7.189598 21.717718 38.078044
676 1 39.525325 19.730771 6.571137
677 1 13.730534 23.058476 27.087686
678 1 21.890387 30.918528 42.054635
679 1 22.636211 10.636316 25.934679
680 1 10.595397 28.002057 15.434459
681 1 7.802561 42.149456 29.730612
682 1 21.595519 18.170267 11.772404
683 1 19.556695 15.642591 18.218849
684 1 2.129118 22.240972 14.273722
685 1 38.596225 42.381242 20.845997
686 1 20.930600 2.903373 3.577563
687 1 40.060852 35.332128 40.852975
688 1 2.237720 14.342959 1.546026
689 1 41.198494 23.525497 4.597387
690 1 39.358867 20.779929 23.799255
691 1 33.714520 38.206501 36.544836
692 1 38.984836 20.894238 23.632691
693 1 42.519972 4.473063 26.177999
694 1 30.605079 18.174188 25.299639
695 1 5.670651 2.115731 42.122896
696 1 9.164737 37.088235 0.935218
697 1 29.150944 34.101179 0.826645
698 1 42.958340 39.479233 14.950864
699 1 6.866603 2.346570 7.271753
700 1 20.932730 30.100867 39.675671
701 1 12.985703 33.389821 2.844224
702 1 31.803491 34.209266 37.497923
703 1 38.449282 22.749069 16.388648
704 1 0.095394 24.387393 9.249217
705 1 36.906616 16.253855 9.700687
706 1 23.177253 29.521558 18.749232
707 1 18.822804 0.439128 37.230944
708 1 30.098686 10.001583 37.187356
709 1 33.641281 19.078222 15.579897
710 1 2.937643 18.888601 10.466495
711 1 23.459251 12.367650 20.675795
712 1 25.316932 11.195451 2.514597
713 1 40.099842 1.824188 35.985995
714 1 39.278512 20.638342 2.029204
715 1 38.805287 8.904087 7.262721
716 1 18.474988 4.578049 17.634377
717 1 8.179353 34.216547 41.264186
718 1 14.575276 12.653192 0.967443
719 1 20.153956 28.392455 38.182644
720 1 15.054320 41.444210 30.548181
721 1 15.973780 1.531177 16.250871
722 1 40.499151 20.849618 28.712388
723 1 42.264096 29.746965 10.744424
724 1 34.768207 42.193485 0.643282
725 1 28.514310 38.502875 4.034819
726 1 19.620290 5.227545 10.046111
727 1 38.152601 36.024987 42.070344
728 1 12.538093 9.018019 42.499245
729 1 25.324282 16.779545 12.642942
730 1 16.610346 7.864417 8.130914
731 1 41.076288 11.016978 34.465616
732 1 18.501390 35.704350 2.357866
733 1 38.047753 31.475133 12.761413
734 1 40.183712 19.676912 34.585048
735 1 11.258286 0.535240 3.434613
736 1 26.918247 10.080909 1.149070
737 1 9.779741 3.462225 30.646892
738 1 23.041060 29.972177 6.186337
739 1 11.368309 28.011571 6.605886
740 1 14.113151 34.980484 16.032831
741 1 37.123445 2.453816 17.466217
742 1 6.000991 37.040456 31.290690
743 1 0.593189 17.131618 4.672209
744 1 21.147281 35.254290 42.157289
745 1 30.101752 41.462083 5.201031
746 1 37.311682 15.924352 18.402951
747 1 3.872035 21.490715 39.296729
748 1 30.302213 38.700664 35.985037
749 1 28.567217 41.455704 0.151045
750 1 37.374554 10.664572 22.629000
751 1 2.927593 24.527427 27.884092
752 1 4.809802 5.268772 42.242674
753 1 27.810369 17.351855 30.734262
754 1 16.284180 6.826610 7.353447
755 1 31.808256 37.730845 16.404628
756 1 22.253639 4.463931 10.525545
757 1 10.500854 12.671997 32.441467
758 1 16.156658 27.367649 16.673540
759 1 30.123641 14.013566 31.532270
760 1 25.439416 8.008234 2.565777
761 1 12.249953 23.454803 20.376762
762 1 30.933952 9.748958 26.731628
763 1 5.001465 17.962780 28.375714
764 1 30.307058 35.543331 31.878946
765 1 14.369446 38.744519 40.032592
766 1 33.414577 35.474351 21.874772
767 1 21.225410 7.163043 1.263865
768 1 36.994337 38.460860 16.078493
769 1 1.554386 15.307534 41.014377
770 1 22.083643 4.880656 2.611975
771 1 32.408644 1.049456 2.684342
772 1 37.179182 10.614435 8.150772
773 1 19.062109 18.780633 22.049588
774 1 8.380488 5.312013 11.490823
775 1 8.841844 39.927442 0.951688
776 1 28.455369 1.916740 3.212828
777 1 41.733568 24.716545 23.316071
778 1 35.956975 28.681977 16.783616
779 1 0.086465 20.450400 37.105995
780 1 4.420780 31.291831 5.536658
781 1 25.734077 28.584300 18.868662
782 1 42.953488 7.072237 14.951978
783 1 38.150418 14.059920 10.722055
784 1 28.324672 41.813203 42.105769
785 1 29.030485 34.868602 36.339202
786 1 20.879248 38.082949 0.085847
787 1 35.559781 35.128475 9.348759
788 1 22.460068 31.942340 42.617162
789 1 29.464463 21.845629 23.686187
790 1 16.829981 16.153106 10.061689
791 1 27.185755 13.228193 15.737114
792 1 0.100569 15.132958 12.309694
793 1 1.499525 24.582358 38.643292
794 1 0.094240 22.013358 2.648028
795 1 28.042224 16.224128 11.196555
796 1 41.013465 42.314438 41.568742
797 1 34.330886 16.166868 23.208239
798 1 18.742365 24.442018 42.663767
799 1 19.092472 23.954477 26.015746
800 1 13.799873 8.092170 16.517033
801 1 36.789938 25.219455 5.987570
802 1 17.029707 40.012023 18.675304
803 1 20.791647 39.590909 3.262430
804 1 3.131418 35.937690 13.922480
805 1 19.659333 24.845948 21.561274
806 1 24.347659 36.102125 41.681361
807 1 27.916370 33.633168 23.753326
808 1 40.399619 4.128911 14.482322
809 1 29.873523 22.146733 5.947211
810 1 30.576682 24.273427 34.902951
811 1 8.328547 37.198942 16.427713
812 1 40.908709 24.797696 12.081307
813 1 38.742122 26.553755 19.805660
814 1 4.503352 6.836093 30.563362
815 1 19.362027 36.882326 10.761342
816 1 4.586889 32.501626 20.500386
817 1 0.443565 2.291063 29.877813
818 1 26.087329 33.301610 9.835247
819 1 21.370917 9.732883 3.966707
820 1 28.853303 4.114700 28.965610
821 1 20.510321 15.498297 14.691783
822 1 15.892781 13.415116 33.478368
823 1 9.469692 0.285420 37.805178
824 1 27.894016 33.632517 25.020904
825 1 31.166070 13.201347 32.344956
826 1 8.189500 5.816620 36.924518
827 1 31.108133 15.360994 11.052917
828 1 9.511549 42.417385 18.303563
829 1 16.870809 39.577441 35.732154
830 1 29.252781 21.407404 1.566396
831 1 14.772106 22.708649 9.659249
832 1 7.512567 32.716980 11.608460
833 1 11.991565 40.266541 5.686312
834 1 0.976196 13.394165 37.414879
835 1 24.566815 19.676706 8.231602
836 1 30.820094 1.397013 8.700643
837 1 8.230356 22.386700 31.601381
838 1 15.540185 31.817173 41.308453
839 1 33.699539 31.554888 31.148368
840 1 42.314868 7.623538 11.388774
841 1 4.829483 28.170484 32.995048
842 1 11.003425 18.538665 38.216532
843 1 28.587457 28.526807 35.150138
844 1 6.440116 37.813513 17.889928
845 1 24.131155 35.377614 17.745181
846 1 2.286970 0.148403 17.601460
847 1 12.585442 30.920935 37.768566
848 1 34.570547 22.694475 42.837130