ITEM: TIMESTEP
0
ITEM: NUMBER OF ATOMS
4855
ITEM: BOX BOUNDS pp pp pp
0.0 42.974154
0.0 42.974154
0.0 42.974154
ITEM: ATOMS id type x y z vx vy vz fx fy fz
1 1 40.221813 33.077809 8.103034 -0.00115385 0.00909468 0.03408877 0.00005798 -0.00001712 -0.00009080
2 1 9.866077 19.794647 11.620711 -0.00290649 -0.01482064 -0.05795645 0.00014778 -0.00004224 -0.00015681
3 1 3.641113 2.260313 35.116341 0.00351166 0.03224142 -0.01033848 0.00005441 0.00005778 -0.00000808
4 1 14.399856 36.128807 27.105595 -0.01195743 -0.02748990 0.04586778 0.00002775 -0.00012051 -0.00010628
5 1 0.305149 3.546304 30.284005 -0.01200148 -0.00341833 -0.01428687 0.00007151 -0.00007816 0.00001956
6 1 21.092630 34.394855 33.579414 0.00036098 0.02375461 -0.00255781 -0.00021791 0.00004560 -0.00025167
7 1 39.390253 1.370597 10.493797 -0.01881301 0.02975361 0.02330366 0.00003708 -0.00013656 -0.00009276
8 1 2.815751 41.141726 41.840409 -0.00411806 -0.00937512 0.04445085 -0.00001087 -0.00017966 0.00004964
9 1 14.889605 2.277055 33.643948 -0.02041423 -0.06253774 -0.01356174 -0.00003772 -0.00010058 0.00000357
10 1 8.827463 3.781642 3.163423 -0.04017862 -0.03063930 -0.07412980 0.00010485 0.00009688 -0.00004077
11 1 18.675836 33.219386 31.410534 0.01305253 0.01341697 0.01726829 -0.00004702 0.00012399 0.00008023
12 1 34.403228 8.370029 24.148742 0.05276461 -0.05527517 0.02709819 -0.00018780 0.00001684 0.00015097
13 1 9.618988 19.034048 14.787058 0.02298254 0.03214332 0.06531228 0.00013017 0.00009600 0.00006350
14 1 20.821082 32.913397 9.900330 -0.03350107 0.01198357 -0.03377672 -0.00000344 -0.00006919 0.00007051
15 1 4.119292 12.374890 4.894965 0.02229049 0.02099791 0.02914626 0.00013320 -0.00005500 0.00000340
16 1 11.547405 31.347674 30.353888 0.01356046 -0.05667889 0.02701515 -0.00004164 0.00019207 0.00007610
17 1 17.465226 41.475774 10.424503 0.00256172 -0.02925603 0.00720838 0.00003217 0.00001650 0.00010262
18 1 31.076583 24.552087 23.456001 0.01865353 -0.03310923 -0.01608544 -0.00002434 -0.00002242 0.00016563
19 1 20.947139 10.900919 16.805569 0.06883838 0.03673416 0.00238203 0.00005626 -0.00003710 -0.00020376
20 1 25.155390 26.883002 24.072293 -0.00740145 -0.00178588 -0.00352108 -0.00000147 -0.00018746 -0.00001253
21 1 20.498474 27.425162 35.339699 0.02855968 -0.00751263 0.03425227 0.00001595 -0.00006702 0.00007299
22 1 9.901228 20.757301 5.266581 -0.00061310 0.00695574 0.02992999 -0.00008821 0.00006075 -0.00004623
23 1 6.097597 18.648612 27.761470 -0.02894019 -0.00021163 -0.03594935 0.00006696 -0.00004484 -0.00002106
24 1 29.785242 28.839704 20.429676 0.01276921 -0.00177768 -0.00228923 0.00007949 -0.00015663 -0.00002916
25 1 41.355940 11.978728 40.416852 0.02211497 0.01712985 -0.00629339 25.82925287 40.42508548 22.38793556
26 1 19.166065 37.950881 12.370255 0.06451227 0.00706132 0.05535286 -0.00007878 -0.00019960 -0.00010137
27 1 21.958253 32.067638 4.550077 -0.02523917 0.02568669 -0.00642213 -0.00003752 -0.00013931 0.00020386
28 1 26.517052 5.354113 15.228269 0.00018659 -0.06425293 0.01680172 -0.00001846 0.00001449 -0.00000336
29 1 17.514981 28.353353 3.697461 -0.02025215 -0.04096447 -0.02338118 -2479.53124314 2417.81398446 -1011.41867717
30 1 31.974357 19.150294 4.021423 -0.01062790 -0.00281555 0.00053433 0.00009823 -0.00010229 -0.00002278
31 1 24.908382 14.377312 12.750908 -0.02226051 0.00276147 0.02437695 -0.37531057 0.01837407 -0.03906947
32 1 17.724701 39.422516 32.697224 0.00093598 -0.05785946 -0.01134067 -0.00010555 0.00006720 -0.00018569
33 1 10.329266 5.041229 17.412689 -0.00166739 -0.00167743 -0.00809695 -0.00001635 -0.00003374 0.00009441
34 1 39.189195 37.196674 0.685766 -0.03908976 0.02082917 0.02950705 -0.00004782 0.00002823 0.00003857
35 1 41.047417 33.479284 9.432883 -0.05970487 0.03617002 -0.02735823 0.00001941 -0.00013500 0.00004235
36 1 21.932849 39.086969 37.197640 0.04848686 -0.04273942 -0.00179972 -0.00000016 -0.00005134 0.00017404
37 1 2.825932 13.365248 24.743366 -0.00723676 0.01027539 0.04598043 -0.00006302 0.00004561 0.00013026
38 1 6.815934 14.484521 19.586444 -0.02993203 -0.01612946 -0.03071062 -1346.69956942 -741.91332098 -949.68007301
39 1 17.206147 40.111704 23.397759 0.03434736 0.01568015 -0.01363719 -0.00000031 0.00012681 0.00014406
40 1 13.969563 10.012340 14.715530 -0.06926678 0.00215307 -0.03813462 0.00000434 0.00019135 0.00000548
41 1 12.549481 22.528314 27.727292 -0.02519203 0.00073199 -0.02259181 0.00002043 -0.00012373 -0.00000606
42 1 7.419534 37.320678 10.035189 0.02815711 0.04850223 -0.01160763 -0.00011960 0.00012018 -0.00003733
43 1 28.630731 1.598543 35.185542 0.01443766 0.01598267 -0.00914869 0.00017062 -0.00004271 0.00005813
44 1 31.468366 20.935761 7.120749 0.03139577 0.00852058 0.01792968 -0.00009878 -0.00014831 0.00010744
45 1 38.520363 25.083852 20.879316 0.00705539 0.00058785 0.07498920 -0.00009609 0.00008955 -0.00017102
46 1 16.040860 40.592795 25.748565 -0.03318701 0.01299995 -0.00533560 0.00009369 -0.00003316 0.00019539
47 1 41.289731 13.746949 41.670382 0.04529192 0.00005426 -0.01962586 0.03893866 -1.03790239 -0.73556675
48 1 9.957939 5.794268 32.832553 -0.03925907 -0.03056768 0.03977598 -0.00002229 -0.00011577 0.00007068
49 1 12.903401 30.506002 14.418836 -0.01675055 0.06646080 0.03675473 0.00008959 -0.00004932 -0.00015562
50 1 21.842530 22.513446 28.410396 -0.00362106 0.00387281 0.00658578 0.00010546 -0.00012021 -0.00005388
51 1 9.167667 5.662229 2.805936 0.04013376 0.03908828 0.04239993 0.00000323 -0.00009568 -0.00006162
52 1 11.627596 1.710744 17.839617 -0.01322449 0.03763696 -0.00742484 -0.00002049 -0.00003711 -0.00002403
53 1 10.774571 41.475965 31.558203 -0.00552732 -0.04472151 -0.00259460 -7.62218066 59.59649101 36.32149449
54 1 31.445928 8.994917 10.045489 -0.01776202 0.02402522 -0.01943350 0.00004183 0.00003637 0.00017871
55 1 21.211615 18.779613 14.946410 -0.00702481 0.03649756 0.01079242 0.00000806 0.00008514 0.00006741
56 1 19.143667 1.970570 28.100419 -0.02954898 -0.02087536 -0.01974240 1292318.06552681 2181074.05588011 541859.41348623
57 1 6.533431 20.051615 7.170514 0.03402593 0.06522817 0.01665159 -0.00008090 0.00006759 -0.00001242
58 1 32.488598 29.612033 30.258131 0.01353361 -0.06018068 -0.02948766 -0.00001856 -0.00006263 0.00003829
59 1 39.706645 15.589080 36.339915 -0.01184996 -0.00865801 -0.00863955 -0.00026599 -0.00004823 -0.00000060
60 1 27.297505 26.788869 40.584191 0.00787381 -0.00990207 0.01212746 -110.24055322 14.35457219 -21.00471569
61 1 2.833434 21.727981 14.399901 -0.05818757 0.03578422 0.00370999 -0.00008897 -0.00009394 0.00000964
62 1 0.813367 12.025933 9.918314 0.02705795 -0.01856705 -0.05745282 0.00003077 -0.00001442 0.00001194
63 1 0.190241 23.570179 38.923567 0.00638346 -0.01643226 0.01035930 0.00029795 -0.00001680 0.00004542
64 1 38.800490 31.975274 9.305700 -0.03704692 0.00808776 -0.06718542 0.00010287 0.00001530 0.00001839
65 1 6.847175 40.153974 21.182861 -0.01620129 -0.00291498 0.03174752 -31106.08771519 55693.94547298 38845.45756572
66 1 14.960414 22.719839 7.722429 -0.02901775 0.03741592 -0.01628416 0.00001631 0.00008387 0.00003276
67 1 16.418394 26.098466 3.145493 -0.01006977 0.03354190 -0.03135104 0.04756619 0.09796748 0.02426362
68 1 42.108496 27.109273 10.024202 0.04029459 0.00775126 -0.04577154 0.00010998 0.00003120 -0.00016863
69 1 29.252376 0.624667 3.409592 0.03424027 0.00690433 -0.02078975 -0.00007065 0.00014906 0.00005956
70 1 26.208494 23.484924 6.441704 -0.03781388 0.01712794 0.03834970 0.00005676 -0.00014546 -0.00016131
71 1 30.024461 32.018435 41.737165 -0.04113029 -0.04359711 -0.01056337 0.00016633 0.00031237 0.00004450
72 1 36.776874 6.906502 2.326053 0.03133994 -0.00751194 0.00001507 723.52329320 1582.90744385 1717.86768086
73 1 4.404279 29.920838 30.050795 0.00522132 0.01242282 0.01616027 0.00007720 0.00010955 -0.00005857
74 1 27.545345 14.442091 3.713910 -0.02532292 0.02007663 -0.01874611 -0.00009608 0.00001288 0.00003046
75 1 1.501828 29.987859 37.093374 0.01139405 0.00330729 -0.06268028 -0.00008192 -0.00011839 -0.00008715
76 1 9.857129 34.012571 13.096558 -0.00083761 0.01175784 -0.02279115 0.00016536 -0.00013078 -0.00003873
77 1 4.684748 1.011344 23.449722 -0.04065313 0.05058635 -0.00949960 -0.00034363 0.00035165 0.00022792
78 1 32.603601 27.853801 18.530332 0.03028611 -0.00619020 0.00157072 0.00004769 -0.00010874 0.00002268
79 1 36.862050 15.738185 10.322018 0.01309791 0.02193560 0.01653547 0.00011301 0.00003207 0.00003055
80 1 37.780717 31.823307 22.465345 -0.01185387 -0.03685728 0.00629281 0.00006043 -0.00021049 0.00019652
81 1 3.487936 21.354636 18.241509 0.00438916 -0.04683309 0.01843336 0.00012563 0.00014918 -0.00010503
82 1 40.923478 16.440621 15.624153 -0.00130673 0.01746216 0.01520678 0.00001408 -0.00003505 -0.00004929
83 1 8.604187 3.103253 21.191514 0.00274148 -0.02313269 0.05880268 0.00008031 0.00002602 -0.00010107
84 1 29.799798 27.167303 17.862154 0.03669583 -0.01526692 -0.01409546 -0.00002252 0.00015558 -0.00003471
85 1 24.063114 5.343619 11.662456 0.00714136 -0.03976762 0.03215035 0.00011637 -0.00016660 0.00003891
86 1 25.395432 1.911190 4.128687 0.00576644 0.00037929 0.03925696 -0.00014596 -0.00000037 0.00010850
87 1 12.378800 5.592494 0.994357 0.02130443 -0.06263550 -0.04154721 0.00000845 0.00002617 0.00001043
88 1 5.757460 36.218463 6.938807 0.02250575 -0.02463932 -0.03072198 -0.00018016 -0.00011761 -0.00003087
89 1 6.034238 33.966060 25.663692 0.03295676 0.01383215 -0.00435017 0.00005187 -0.00007042 0.00013218
90 1 33.319110 23.521752 31.712571 0.00557062 0.05402558 -0.00699912 -0.00011561 -0.00004863 0.00005641
91 1 33.148444 7.045883 40.164851 0.00145987 0.00340058 0.02104624 -0.00007160 0.00011753 -0.00008585
92 1 8.506896 41.613919 18.012356 0.02185522 -0.02812084 0.00763235 694.38267213 555.38330017 201.55691766
93 1 40.286694 17.958477 34.190691 0.02424492 0.04139975 0.01433463 -0.00007150 0.00021277 0.00012696
94 1 8.811936 23.828026 12.677768 0.02761708 0.00517954 -0.02393397 0.00005173 0.00008504 0.00003038
95 1 31.207174 15.163514 13.492577 0.00073765 -0.02538035 0.03973472 -0.00019348 0.00014775 0.00002861
96 1 17.851456 38.037684 1.188255 0.02515684 -0.05527767 -0.03365392 -4045.18579293 16823.86365674 -18290.31362666
97 1 30.110209 21.365395 1.665928 0.03160608 0.03053502 0.02049798 -0.00001751 0.00005711 0.00009379
98 1 20.838441 10.855054 2.385504 0.03960100 0.07181653 0.03507905 0.00018945 0.00011496 -0.00005701
99 1 14.196647 7.854456 41.744079 0.04050566 0.01288236 0.00721449 -0.00016665 -0.00005604 -0.00010975
100 1 21.544996 28.957427 34.877016 0.00554867 -0.02745461 0.01739908 0.00020059 0.00013871 -0.00025265
101 1 39.408085 34.422670 5.341777 -0.00945787 -0.00897107 0.00367127 -0.00003246 0.00005228 -0.00002711
102 1 2.179784 35.524256 33.151800 -0.02501047 0.06149121 -0.04838432 -0.00007654 -0.00000576 -0.00006225
103 1 31.983732 14.058241 19.651863 0.02480169 -0.03639767 -0.02325664 -0.00000382 0.00016505 -0.00012329
104 1 11.984913 5.713673 15.514791 -0.00878405 -0.02899666 0.01967025 0.00004329 0.00020411 -0.00015657
105 1 9.213777 21.828453 35.895402 -0.00934345 0.03902046 0.00725789 0.00010778 -0.00002190 0.00002042
106 1 36.541613 21.050956 22.782368 0.04601786 0.04652495 0.00560833 7.79966829 -14.31823435 0.60635968
107 1 19.272415 13.653399 33.935323 -0.00282860 -0.04054320 -0.03358266 0.00007059 -0.00010484 0.00007391
108 1 1.929758 41.721779 14.044425 0.04813771 -0.01260289 -0.06796522 0.00001680 0.00010340 0.00018790
109 1 24.893946 41.724946 13.355203 -0.02755934 0.02895510 -0.01167114 0.00005546 0.00007074 0.00020974
110 1 38.419196 9.202106 33.157651 0.02007329 -0.02719206 -0.03511135 0.00007976 0.00009580 -0.00001797
111 1 22.841561 39.698666 38.921312 -0.04511998 0.02693211 0.00032717 -0.00001008 0.00005453 -0.00004335
112 1 17.002708 18.197838 23.026058 0.00109225 -0.01067685 -0.02356109 0.00002406 -0.00006022 -0.00013871
113 1 26.857438 20.855121 36.069717 0.01642861 0.01076351 0.00416686 0.00005199 -0.00000146 0.00013781
114 1 36.460981 16.671033 5.323348 -0.02981745 0.00954487 -0.01786038 0.00014139 -0.00003684 0.00020283
115 1 36.654647 32.539581 11.833802 0.00212274 -0.00839927 0.00894386 1017003.78031724 1567048.69108732 1148998.06549758
116 1 27.115739 34.687976 1.281162 -0.00649051 0.02143016 -0.01044226 -0.00005907 0.00013136 -0.00005809
117 1 9.137047 25.182537 42.719398 0.01961280 -0.03473063 -0.03867603 -0.00002257 0.00004370 -0.00023047
118 1 0.548672 7.448398 32.202942 0.01435468 -0.05358591 -0.03487879 -0.00002485 0.00012111 -0.00001024
119 1 0.299116 42.472325 12.304814 0.00930936 0.02507362 0.00181773 0.00005401 -0.00011159 0.00018263
120 1 26.228905 13.255728 27.851294 0.04591971 -0.01752592 0.06365863 -0.00017547 0.00002486 -0.00010308
121 1 11.644174 17.633656 2.218290 0.02530183 0.05281695 -0.04793592 -0.00001369 -0.00004612 0.00003732
122 1 11.198576 14.969178 37.006170 -0.02833659 0.04681549 -0.00353070 0.00002084 0.00014587 0.00004489
123 1 4.325246 0.267229 28.327571 -0.03772200 -0.03120036 0.05620820 0.00006282 0.00000457 -0.00000096
124 1 20.000466 36.744313 18.930312 -0.03025376 0.03215627 0.00130046 0.00006875 0.00012993 0.00026719
125 1 27.988182 40.281009 22.468486 0.02523258 0.01471956 0.03755899 -0.00008111 0.00007874 -0.00010994
126 1 6.050258 0.010400 39.183835 -0.04864358 0.03146155 0.04929179 -0.00010630 0.00015711 -0.00002330
127 1 29.687701 27.040311 28.934733 -0.03319273 0.04884784 -0.03772532 0.00014131 -0.00004060 -0.00017869
128 1 31.090782 11.963930 17.185023 -0.05120266 -0.01875014 -0.01142968 0.00004983 -0.00003969 -0.00011345
129 1 27.937633 31.328687 35.412276 0.00604537 0.04918611 -0.00551805 -0.00027581 0.00002512 0.00002799
130 1 15.949055 20.476999 31.975278 -0.02637278 0.02759362 0.03022850 -0.00002204 -0.00006510 0.00000233
131 1 40.163801 21.195519 27.276106 -0.00160063 0.01363235 -0.02887732 0.00006668 -0.00013281 0.00010559
132 1 41.145940 8.882812 40.954316 -0.00693350 0.01770504 -0.01946964 -0.00008754 -0.00010927 -0.00014522
133 1 3.737798 36.594835 29.754649 0.01614243 0.00532781 0.03197324 -0.00008860 -0.00010386 -0.00016486
134 1 20.586156 37.587964 26.593864 0.04901586 0.01032270 -0.00778691 0.00004497 0.00018230 -0.00007880
135 1 18.647395 10.065057 22.363088 -0.01169179 -0.01435060 0.00741246 -0.00016948 -0.00004795 -0.00005142
136 1 8.149447 24.209601 29.858078 -0.01674116 0.05881101 0.02252909 0.00015404 -0.00019006 0.00008638
137 1 2.167822 31.509293 18.613369 -0.04134710 -0.02649411 -0.00552357 -0.00002822 -0.00008983 -0.00014468
138 1 27.096885 24.762780 29.968961 -0.01566089 0.02908123 -0.00723245 -0.00008233 -0.00003007 0.00009491
139 1 31.782103 39.175395 35.159887 0.00980610 0.02412999 -0.02935288 -0.00002211 -0.00002716 -0.00018421
140 1 8.665402 10.377252 29.810087 -0.00110563 0.01615736 -0.02958126 -0.00014913 -0.00007298 -0.00003371
141 1 6.432078 38.054919 13.678979 0.01443632 0.05733314 0.01787058 0.00007196 -0.00012551 -0.00021495
142 1 22.239789 36.699518 3.897118 0.03640442 0.03701507 0.02354898 0.00013957 0.00006494 -0.00000857
143 1 15.684546 33.129293 15.622177 -0.00819633 0.04253026 0.02013442 0.00010982 0.00003285 0.00012088
144 1 26.591933 23.017740 25.753347 0.00011292 -0.00964188 0.00378884 -0.00008759 -0.00008692 -0.00000557
145 1 26.773119 24.112160 40.549308 0.03741822 0.01581765 -0.02296432 0.00802374 0.04050318 0.00057004
146 1 10.386010 8.244378 24.134100 0.00440012 -0.03616629 -0.00892973 0.00001805 0.00004741 -0.00020527
147 1 37.069478 4.437873 21.943802 -0.02164366 0.06051845 0.05616915 0.00006186 0.00002735 0.00022290
148 1 5.583718 34.869612 29.024648 0.02042871 0.01595924 0.04000419 0.00004261 0.00011464 0.00020996
149 1 4.126795 25.729274 23.265260 0.00247280 0.03014825 0.00314438 0.00007725 0.00000870 0.00008224
150 1 6.612173 4.572027 40.250521 0.00407214 0.04936091 0.02482400 -0.00004859 0.00004988 0.00007451
151 1 12.907094 26.243433 41.409538 -0.05567677 0.01611798 -0.00220246 0.00001957 -0.00010846 0.00004789
152 1 22.375104 21.844832 14.538230 -0.02394390 -0.01368294 -0.01099479 -0.00015536 0.00000207 0.00018060
153 1 3.440013 40.169072 28.874519 -0.00755916 -0.01061236 -0.03221992 -0.00009078 0.00015405 -0.00003226
154 1 8.188185 33.989388 28.671730 0.02022744 -0.02797635 -0.00449988 -0.00004835 -0.00000099 -0.00005333
155 1 24.778935 13.972533 12.575352 -0.00516064 -0.01656800 -0.01323498 -2.57565855 -0.87439631 0.05607869
156 1 0.741853 10.467926 27.284269 -0.01539875 -0.03878226 -0.00832310 -0.00007206 0.00010468 -0.00014295
157 1 16.275020 27.685679 0.884232 0.01012674 -0.00075264 -0.00183007 0.00016337 0.00004988 -0.00004689
158 1 13.874912 40.999791 23.360850 -0.02341647 0.00866835 0.03014893 0.00020234 -0.00002011 -0.00009779
159 1 30.367569 22.038274 37.283506 -0.02127057 -0.01302914 -0.01295512 7140.01554177 -342.64420332 -6139.57451899
160 1 13.323200 19.028345 0.808573 -0.00744551 -0.01383766 0.01904482 0.00005979 0.00003532 -0.00001091
161 1 16.792432 25.126961 1.705528 -0.01407014 0.07782418 -0.01116492 -0.00012804 -0.00148163 -0.00097148
162 1 13.782684 22.951076 42.905066 -0.00940450 0.01057896 -0.01448745 -0.00004093 0.00000988 0.00004745
163 1 32.148222 16.433730 5.445697 -0.01983388 -0.02316984 0.00718291 0.00009893 -0.00011248 -0.00003936
164 1 11.861792 33.040609 21.620194 -0.00563655 0.00377087 -0.00709095 -0.00020728 0.00002454 -0.00004236
165 1 25.160601 16.202936 15.551008 0.03121464 0.01291183 -0.01046566 0.00035177 0.00277965 0.00374251
166 1 30.176998 12.199039 6.986882 0.00110670 -0.02428263 0.00961663 0.00020071 0.00007318 -0.00014015
167 1 9.138665 25.720131 2.988434 -0.03137459 0.03507898 -0.02597541 -0.00002335 -0.00007528 -0.00007123
168 1 15.632338 25.715300 5.652301 -0.01883977 0.02797092 0.03292579 -0.00116558 -0.00133358 0.00113176
169 1 30.980680 27.132587 36.447663 -0.00678776 -0.06180673 0.00154438 0.00028797 0.00029258 -0.00033087
170 1 35.667638 2.861204 15.172908 -0.02280147 -0.00322036 -0.02859147 0.00001081 0.00013258 -0.00011103
171 1 41.713437 23.152073 5.692420 0.02756631 0.02019203 -0.02489130 -640.80748973 447.23586131 -1342.88500128
172 1 5.811993 38.486447 15.046787 0.01016599 0.01341393 0.00139369 -0.00026119 -0.00022765 -0.00042271
173 1 17.449863 41.538085 31.216367 -0.02923148 0.02631480 0.02626716 -0.00019375 -0.00040822 0.00020017
174 1 17.443706 4.949930 33.445109 -0.03714249 0.00146017 0.02227816 -0.00015794 0.00010545 -0.00005913
175 1 21.027369 14.615544 36.110837 0.03465610 0.00834986 0.02661391 -0.00008621 0.00000798 0.00006416
176 1 19.776761 41.236278 1.616289 -0.02872753 -0.02258822 0.02283616 0.00093978 0.00177402 0.00019673
177 1 33.907735 17.001551 20.076127 -0.00809357 -0.03087356 -0.02696387 -0.00006520 -0.00001605 -0.00018938
178 1 27.836851 15.188529 15.269972 0.03277991 0.03445521 0.03236838 29.82131053 -60.39396398 -66.39368432
179 1 0.608186 23.192416 4.078071 -0.03506077 0.00764463 0.05679190 -0.15194402 -0.00320495 0.13123250
180 1 23.046762 12.652085 19.485474 -0.00247797 -0.04734505 -0.00781267 1138.23625504 -91.43667242 1539.31438171
181 1 30.021776 21.334410 30.497708 0.01387679 -0.00296912 0.03569933 0.00019846 0.00004155 -0.00004357
182 1 9.585126 23.535971 1.325155 -0.03136855 -0.01392358 0.02563008 0.00002663 0.00012236 -0.00008309
183 1 36.369770 38.099205 39.433364 -0.06650994 0.00836738 0.05269081 0.00014260 -0.00009872 0.00005112
184 1 26.089178 39.685641 15.508769 -0.01723523 0.02057819 0.00606892 -0.00023539 0.00021995 0.00007442
185 1 22.797248 38.087455 34.978628 0.01255315 0.04185661 -0.01225278 -0.00016676 0.00016663 -0.00000628
186 1 7.465144 1.039768 23.645947 -0.04900072 0.03076548 -0.06522364 0.00012101 0.00049568 0.00046837
187 1 25.108833 12.205192 7.168049 0.05030827 0.00563377 -0.01298336 -0.00017616 -0.00013753 -0.00021754
188 1 15.289391 27.153161 10.739357 0.01607363 -0.00401001 -0.01728314 -0.00003597 -0.00005633 0.00007680
189 1 14.990343 15.344451 30.444886 0.03663630 -0.00173335 0.01373301 -0.00002268 -0.00013121 0.00014999
190 1 14.571139 20.489214 25.510245 0.07094609 0.01075763 0.02146020 -0.00009814 -0.00005422 -0.00002076
191 1 4.080281 25.471928 7.676984 0.04377635 0.02365254 0.00729597 6881.74150085 15085.62107882 11459.56885141
192 1 33.252801 2.576497 12.075521 0.02194452 -0.02868079 -0.02140694 -0.00009609 0.00008755 0.00003900
193 1 16.568616 39.767306 7.060626 0.04173479 0.00829885 -0.02641440 575.01740505 1892.20204309 -202.86708332
194 1 41.143757 39.078815 9.031150 0.02252631 -0.02911664 0.00890634 0.00008165 -0.00006538 -0.00002534
195 1 39.900150 36.117462 24.432581 0.00593837 0.01523680 0.00562437 0.00008258 0.00006290 0.00009757
196 1 0.301763 41.750692 12.124214 -0.01898076 0.00123259 0.03924463 0.00008300 0.00005625 -0.00009591
197 1 30.068644 26.780341 33.067087 0.01774844 0.02001954 -0.06383542 -0.00007979 0.00008917 -0.00002651
198 1 21.094513 35.951700 35.516496 0.00515437 0.04480790 0.01705950 -0.00000290 -0.00023917 -0.00004573
199 1 7.854469 22.145031 30.575098 0.02356371 0.02634770 -0.05158816 0.00011461 0.00001117 -0.00012053
200 1 15.351095 40.135187 12.034926 -0.02657960 -0.02861859 0.01731190 -0.00004570 -0.00008189 0.00050310
201 1 3.392088 7.634285 16.385728 -0.04806768 -0.02117008 0.04612574 0.00010093 -0.00005237 -0.00006235
202 1 40.801113 28.152795 38.400774 0.01393072 0.04909864 0.01239683 0.00002031 0.00009077 -0.00001005
203 1 0.455824 4.062202 20.465510 -0.01250946 0.02659128 0.03108528 0.00012676 0.00015885 0.00005244
204 1 10.731246 2.167216 28.044293 -0.04480061 0.00820618 -0.03241921 -0.00023059 0.00013442 -0.00008602
205 1 27.307932 13.400781 15.122611 -0.01258995 0.01824790 -0.00162653 2.64330129 8.92217391 0.73894575
206 1 3.935360 6.062368 6.954603 0.00268489 0.07370021 -0.02515205 0.00014485 0.00007200 0.00009187
207 1 10.469957 21.546345 34.880751 -0.01961214 -0.05837194 0.01099067 0.00007686 0.00022106 -0.00001074
208 1 37.686256 17.577944 0.564482 0.00190177 -0.01047457 0.01904571 -0.00023438 0.00003214 -0.00002475
209 1 17.726115 28.859975 42.587272 -0.01567839 -0.07068199 0.01277933 0.00024532 0.00028780 -0.00138080
210 1 22.414196 39.264060 1.566120 0.01454845 -0.00053387 -0.04128326 0.00058300 0.00037231 -0.00002699
211 1 13.711381 15.616896 23.059968 0.04419740 -0.00932780 -0.02581481 0.00009933 -0.00001812 0.00000976
212 1 17.565491 16.458210 37.725691 -0.01658340 -0.05308953 -0.00029425 9637991.93918514 -13535761.74561961 9876864.89269891
213 1 3.714146 42.837861 28.313631 -0.00344458 -0.03019503 0.01907617 0.00000723 -0.00009750 -0.00004799
214 1 37.652847 7.342521 35.815990 0.01303369 -0.00139799 -0.03483576 -0.00014711 -0.00008964 -0.00000142
215 1 34.657822 18.329721 13.779449 -0.01643391 0.02431708 -0.00670461 35.60377823 29.35372733 -17.05709088
216 1 5.445428 25.599810 9.808163 -0.04495901 -0.02542189 -0.02679982 -0.07358782 -0.00666947 -0.11477552
217 1 8.325275 24.415225 29.542646 0.03921559 0.04328662 -0.02211464 0.00009082 -0.00007872 0.00007209
218 1 33.908179 32.307076 21.995483 0.01945240 -0.02288099 -0.00032362 -0.00006302 -0.00001887 0.00017392
219 1 2.144004 30.966110 3.330849 0.01138996 -0.01069595 -0.00698736 -0.00008653 0.00004939 -0.00002144
220 1 6.146335 19.803784 29.584124 -0.00012991 0.02718986 -0.00379062 -0.00001217 -0.00001784 0.00014889
221 1 3.640115 42.149154 23.040814 0.00208938 -0.04940703 -0.01638408 -0.00105288 0.00063278 0.00056952
222 1 7.932651 26.477173 15.504737 0.00044707 -0.02126145 0.01454901 95.14354537 101.24628398 40.27348695
223 1 12.218933 16.280449 39.440228 -0.02673744 0.00566217 -0.05439999 -0.00039347 0.00003988 -0.00007280
224 1 32.046897 23.877474 2.606107 0.00024292 -0.04662185 -0.02370399 -0.00000810 -0.00000476 0.00004854
225 1 26.229184 27.948783 10.685500 -0.03429698 -0.02815537 -0.02569604 -0.00008173 -0.00006410 -0.00001271
226 1 24.951843 8.867628 36.903677 -0.03044419 0.01933057 -0.02641879 0.00017617 0.00004350 0.00027110
227 1 34.790574 19.800196 34.784077 0.07487025 0.01582713 0.02010518 0.00019213 -0.00029659 -0.00010943
228 1 36.764127 24.563845 35.198279 0.03461798 0.02926743 0.00878301 0.00022120 -0.00009076 -0.00004527
229 1 0.105071 22.091813 25.110420 -0.01369733 -0.00806725 0.02595597 -0.00010523 -0.00005297 -0.00005973
230 1 41.244462 35.125754 33.557425 0.06656771 -0.03465610 -0.03716077 -0.00002269 -0.00005773 -0.00011469
231 1 29.992325 5.881913 2.934354 -0.01011188 0.02294024 -0.02247308 -40.82144652 -11.82180944 -40.90235556
232 1 19.213530 2.914339 25.935365 0.01850595 0.02192467 -0.03738263 -0.01153445 -0.15318999 0.35112274
233 1 14.934135 3.221079 12.340857 0.00528299 0.02144691 0.04812908 0.00009947 -0.00000715 -0.00002540
234 1 26.118050 4.682463 18.885984 0.05231223 -0.02728839 -0.00563824 -0.00008492 -0.00018448 0.00008498
235 1 11.030055 35.508032 16.877693 -0.01256849 0.00824457 0.00807290 -0.00007079 -0.00004608 0.00003426
236 1 22.489712 13.634397 0.754239 0.02182754 0.02554568 -0.04027494 0.00003080 0.00002301 0.00004604
237 1 14.596922 41.867054 13.494303 -0.03371856 0.00669207 -0.07704836 0.00013909 0.00013184 -0.00007862
238 1 33.357025 7.840398 19.550752 -0.00936865 0.02722538 0.00630234 0.00001811 -0.00016682 -0.00014289
239 1 27.580356 36.935236 16.387637 -0.01605575 -0.00223995 -0.00634277 -0.77928844 0.86794794 -0.59363760
240 1 21.463954 25.889823 35.900192 -0.01328416 -0.01633690 0.02357024 -0.00034362 -0.00012583 -0.00006157
241 1 24.391937 20.109558 36.833114 -0.01692036 -0.00271065 0.04410505 3228552.25569894 9099808.74112760 -518559.42343886
242 1 32.374714 20.937561 7.209081 -0.02866266 -0.00477201 -0.03978685 -0.00010025 -0.00015629 -0.00012433
243 1 35.826628 19.088200 12.627148 -0.03094311 0.05858166 0.00080966 184668057.89606360 -24476843.44985660 190259480.54155180
244 1 30.758836 35.256081 10.582109 0.03427084 -0.00828860 -0.00390171 0.00012742 -0.00005980 -0.00015365
245 1 31.402038 14.933217 8.186203 -0.00756245 -0.00778501 0.02761667 0.00005855 -0.00004798 -0.00008488
246 1 41.832838 13.853980 41.868477 -0.02450390 -0.01079996 -0.02501694 -0.05361378 -0.21148802 -0.16352566
247 1 32.400805 0.296782 2.990963 0.07608763 -0.00764279 0.01832732 0.00009432 -0.00013723 0.00016021
248 1 26.419521 2.845546 21.819097 -0.00329676 -0.04237177 -0.00236772 0.00014304 0.00010455 0.00001074
249 1 6.060452 2.725380 15.599510 -0.03732984 0.05530204 0.03638831 -0.00014946 0.00021298 -0.00023544
250 1 24.307078 6.109525 29.242449 -0.05089402 0.01635428 0.02175871 -0.00003905 0.00012182 -0.00011137
251 1 32.176531 0.564441 33.893561 -0.02751577 0.01277561 -0.00022303 0.00009275 -0.00012871 -0.00011091
252 1 38.189849 37.939382 7.491284 -0.01188675 -0.00002622 0.00894145 -151849.40964633 13751.61028401 121140.20372929
253 1 5.361770 26.242292 13.527534 0.00788813 0.00113134 -0.01528832 95.14229865 -313.91107548 196.51787941
254 1 30.773261 23.325654 31.403910 -0.00143414 0.04145372 -0.00130010 0.00008901 -0.00012424 -0.00001020
255 1 18.786440 28.634638 14.356530 -0.00300277 -0.00495601 -0.00578556 0.00013942 0.00013219 -0.00006014
256 1 12.932270 2.003258 33.296896 -0.01557993 -0.01685849 0.01599598 0.00046816 0.00080556 0.00028806
257 1 7.600174 33.585773 19.790126 0.01476144 -0.00307496 0.01691970 -0.00004869 -0.00008368 -0.00013053
258 1 10.070917 20.943177 1.443806 -0.07837955 -0.00737122 0.02040531 -0.00006354 0.00015277 0.00007395
259 1 3.303860 34.077162 14.667136 -0.02248147 -0.04094188 -0.00751808 -0.00006494 0.00010052 -0.00012147
260 1 22.634822 37.321913 25.611168 -0.00811782 -0.00294252 -0.03964884 -0.00016099 -0.00010477 -0.00019589
261 1 18.880708 6.634802 11.729064 -0.02624418 0.00938097 -0.00919616 0.00000330 0.00002862 -0.00004302
262 1 17.898013 28.965725 42.527954 -0.00948900 0.01312978 0.04659809 0.00005182 0.00022873 -0.00117509
263 1 9.763219 17.720881 15.534146 0.01946687 -0.00178034 -0.02329987 0.00011550 0.00012264 -0.00019096
264 1 22.883166 12.890264 17.399425 0.04986743 -0.04053299 0.01639899 0.14706288 -0.21460093 1.88006393
265 1 32.338437 38.361347 36.401147 -0.03562638 0.03458374 0.00798157 -0.00006940 -0.00009650 -0.00006090
266 1 17.377861 34.383714 33.267693 0.03143009 -0.06350250 -0.01516490 -0.00008263 -0.00011686 -0.00008124
267 1 37.339698 22.865061 42.503145 0.04828729 0.04422013 0.02267211 0.00000813 0.00002676 0.00003705
268 1 34.915043 23.973613 16.506485 0.06791556 0.04494997 0.02957016 -6.45654959 -11.88909078 10.98517603
269 1 6.453528 39.857462 39.200678 -0.00298065 0.00613582 -0.00300522 0.00003591 0.00005783 0.00015861
270 1 9.494722 22.488444 16.087592 -0.00426965 0.00309737 -0.01585815 0.00042742 -0.00116194 0.00025519
271 1 28.061180 19.845915 3.021452 -0.00928876 0.04974027 0.01409718 -696.44247456 3041.89427169 -3900.07512046
272 1 2.633369 12.699302 28.166979 0.03906667 0.03976088 -0.06021501 0.00006061 0.00008078 -0.00003803
273 1 28.233934 24.195390 2.725214 0.03158272 -0.00561034 0.04666978 29.18001003 297.64029445 -250.61576379
274 1 27.006224 12.119462 28.296610 0.05276651 -0.00745175 -0.01474918 4502.16470248 1423.40389939 4412.75864317
275 1 37.606974 1.178071 2.703399 -0.02275044 0.00119700 0.01663528 0.00009458 -0.00011314 0.00009324
276 1 3.101659 9.415788 12.370719 0.03479365 0.00004157 0.04924920 0.00000005 0.00009248 -0.00015453
277 1 4.424017 11.978307 39.648490 -0.01896315 -0.01383377 -0.01533470 -0.00009350 0.00001359 0.00000274
278 1 41.392802 25.957524 23.204371 0.00432674 -0.02768152 -0.07614642 113814.07697111 -70468.67878313 31461.58831205
279 1 42.438481 41.216373 30.479804 -0.01469127 -0.00444487 0.00978465 0.00011196 0.00010646 0.00000803
280 1 21.421516 26.323777 8.757367 -0.03212093 0.00181152 -0.01103621 -0.00018412 -0.00011113 0.00018763
281 1 3.333747 27.483042 34.152566 0.01479202 -0.04185028 0.01229710 -0.00015762 -0.00005210 0.00006031
282 1 39.869461 6.145329 34.514496 -0.00657936 -0.01088011 0.02167003 0.00005807 -0.00032975 0.00007038
283 1 37.487530 13.974817 12.328940 -0.03928309 0.00815547 -0.02976830 10640.39620149 1317.73258129 -7732.67832294
284 1 33.452181 42.101516 34.013409 -0.01571202 0.01042958 -0.01030401 -0.00005444 -0.00025205 0.00002913