LAMMPS data file for silica system 40

4125 atoms
2 atom types

0.0 38.259236 xlo xhi
0.0 38.259236 ylo yhi
0.0 38.259236 zlo zhi

Masses

1 28.0855  # Si
2 15.9994  # O

Atoms  # atomic

1 1 4.031516 18.935240 3.516030
2 1 25.177204 8.124735 15.174076
3 1 30.450359 21.639949 32.891516
4 1 14.043744 1.995716 7.008119
5 1 7.258488 13.712453 6.237135
6 1 14.991351 37.437508 2.322088
7 1 14.271353 26.604595 16.845938
8 1 28.715297 26.123379 27.919199
9 1 7.851257 29.296587 36.859064
10 1 0.433551 23.079654 25.158358
11 1 22.294761 33.574835 27.705982
12 1 4.845786 35.799526 36.654231
13 1 4.443831 8.271692 29.609562
14 1 23.468235 6.935185 17.871657
15 1 4.109431 1.264999 20.467716
16 1 29.739118 2.582698 34.471371
17 1 18.595539 15.704594 9.968590
18 1 33.041373 9.375725 4.353850
19 1 31.200729 22.554773 15.579871
20 1 1.023348 32.177984 19.298322
21 1 2.054170 18.507767 23.980495
22 1 31.519079 2.413644 27.561047
23 1 21.974320 8.034496 31.267158
24 1 7.835184 38.231973 4.317218
25 1 34.023282 1.430908 20.180480
26 1 28.776852 16.765057 11.489291
27 1 35.526943 15.216251 22.030929
28 1 22.128571 27.030132 1.265334
29 1 35.854179 0.457706 18.411544
30 1 1.666618 28.011361 9.551571
31 1 14.688259 18.493155 35.960262
32 1 10.931468 21.857435 37.428609
33 1 19.117841 0.067598 18.722650
34 1 8.449951 29.068617 31.644463
35 1 3.775501 12.288056 3.509867
36 1 12.789231 36.863194 21.188528
37 1 2.116854 22.106839 32.964497
38 1 31.451355 2.888503 26.234846
39 1 17.301620 26.950961 36.639660
40 1 21.316781 6.054026 17.495272
41 1 9.830069 4.772221 37.168946
42 1 22.704425 38.134036 3.652453
43 1 18.387046 8.642778 10.380350
44 1 0.778481 6.750501 21.094862
45 1 23.959476 26.852364 23.404046
46 1 8.794742 2.519264 12.624141
47 1 24.981699 5.044444 15.009344
48 1 13.987352 16.962124 12.813788
49 1 16.101560 20.422445 6.714114
50 1 16.935286 35.485746 30.051392
51 1 4.471213 23.541529 23.468910
52 1 1.277471 5.726926 14.229589
53 1 38.024714 10.040257 23.691085
54 1 5.743534 18.964609 29.452100
55 1 15.101624 13.487518 15.415040
56 1 31.010576 27.597958 18.646466
57 1 29.455250 28.108977 27.560686
58 1 8.470095 14.382177 1.113677
59 1 4.026766 28.858252 13.003280
60 1 22.213652 30.531674 16.532354
61 1 2.354889 37.821254 11.196656
62 1 32.464270 12.224527 21.681201
63 1 37.520498 35.746515 16.175472
64 1 34.471824 24.249270 7.809497
65 1 0.522978 1.968046 12.037994
66 1 12.266912 0.905840 2.109100
67 1 29.912724 36.424288 25.280949
68 1 10.905218 3.386687 7.611210
69 1 24.807534 36.886809 22.390606
70 1 29.082747 19.956425 7.301113
71 1 5.425971 34.865332 11.742005
72 1 34.588594 28.780544 30.939546
73 1 28.945775 2.425972 1.032788
74 1 32.953121 21.439044 17.921789
75 1 17.662712 35.883801 22.618110
76 1 4.887595 17.140223 35.692966
77 1 13.091225 37.835133 26.766747
78 1 7.435392 14.414512 37.593441
79 1 17.714153 8.838923 1.924765
80 1 15.340426 15.554528 15.323407
81 1 10.220015 26.895919 25.613126
82 1 27.235703 4.731428 9.624696
83 1 34.417738 6.170352 12.702434
84 1 15.940983 18.170249 20.142922
85 1 19.427472 4.859915 1.474796
86 1 9.401286 15.523057 18.447761
87 1 38.167823 4.025592 26.418268
88 1 8.062736 4.189794 33.290815
89 1 0.817818 35.488523 33.384465
90 1 3.121370 2.706962 16.803994
91 1 12.773303 37.022431 26.408942
92 1 33.610546 1.630172 19.307303
93 1 0.793720 20.822840 9.293638
94 1 6.478560 17.381642 11.841834
95 1 36.394229 29.041449 31.376595
96 1 23.776103 13.303370 12.273550
97 1 5.293842 7.386355 8.324043
98 1 31.196479 31.337855 33.540619
99 1 37.752370 14.328967 2.607209
100 1 11.745118 9.361833 0.510964
101 1 0.321482 30.470723 14.421752
102 1 11.565804 14.504058 23.313460
103 1 17.929055 9.727694 17.314473
104 1 24.356790 8.488412 2.959041
105 1 12.420834 26.596227 19.258480
106 1 5.954796 6.659874 24.132573
107 1 9.070506 29.841573 33.981175
108 1 14.682841 32.062546 30.312078
109 1 1.475597 15.110286 5.394531
110 1 21.562951 35.223449 23.058329
111 1 19.281261 26.806902 8.174992
112 1 33.826643 2.554986 6.280392
113 1 20.204116 25.204883 5.617812
114 1 31.378531 22.793495 7.309820
115 1 35.476415 37.572139 0.338142
116 1 33.812841 29.570794 22.887626
117 1 32.855626 17.289031 7.033936
118 1 29.769681 13.382680 8.835936
119 1 17.030988 12.017224 19.606078
120 1 5.679225 20.055321 4.249057
121 1 30.281848 16.387022 8.382431
122 1 14.438837 29.437477 23.510662
123 1 2.272731 33.032187 25.743285
124 1 24.292421 14.167044 37.936941
125 1 26.046137 23.846096 15.678003
126 1 38.188850 21.104503 6.453585
127 1 38.160341 11.369211 0.918337
128 1 11.171542 29.264329 19.615210
129 1 6.033307 6.915402 25.470016
130 1 33.873969 19.238846 2.323290
131 1 33.871384 1.293150 2.324766
132 1 4.161841 1.607770 1.925185
133 1 23.146370 27.245685 4.230494
134 1 16.035282 31.271085 30.125781
135 1 31.300742 10.248513 14.576796
136 1 9.567448 3.577773 1.225289
137 1 35.717869 5.769926 29.040585
138 1 25.797853 20.287748 30.550629
139 1 32.267097 29.013313 0.182787
140 1 37.605030 26.251682 5.055033
141 1 37.161459 12.505682 36.758188
142 1 29.467390 17.434972 12.747588
143 1 23.511995 10.048915 29.394098
144 1 18.873654 9.236293 23.456832
145 1 32.468575 26.260345 24.235448
146 1 10.832857 1.878020 33.844979
147 1 19.914816 21.380318 30.519437
148 1 32.272924 8.547464 5.071520
149 1 31.957826 2.034946 5.652381
150 1 33.543665 22.748717 24.476267
151 1 18.507074 1.607600 20.709917
152 1 1.780748 2.670508 5.656015
153 1 4.457509 11.517143 6.822778
154 1 14.384417 35.951690 33.066627
155 1 29.703002 17.364736 15.990750
156 1 4.153528 22.869978 0.846230
157 1 31.508061 31.932992 0.601615
158 1 28.836614 2.081033 16.709140
159 1 33.560853 23.327500 37.097253
160 1 19.700497 3.431459 0.011224
161 1 14.562620 16.094170 29.136464
162 1 17.195373 9.418782 26.012482
163 1 13.864123 17.677395 8.212823
164 1 33.334734 8.573414 25.896463
165 1 30.429207 9.660962 19.278280
166 1 31.800751 22.077963 0.453698
167 1 27.936248 14.062062 26.798589
168 1 26.791591 29.367822 4.621817
169 1 17.338566 12.696993 0.745688
170 1 2.760120 37.130390 4.158785
171 1 24.411931 3.885009 6.142199
172 1 13.311726 10.985621 2.943259
173 1 23.861639 3.060745 35.493368
174 1 7.974076 15.613104 26.932444
175 1 1.391774 15.300858 37.895085
176 1 24.213875 33.221167 0.215190
177 1 0.678145 35.142470 36.160992
178 1 2.671327 11.331497 9.273189
179 1 32.159934 33.027841 19.005405
180 1 13.628333 34.503135 29.627712
181 1 34.340938 1.984065 34.397010
182 1 26.849300 16.462099 30.221874
183 1 19.316757 27.277023 28.121909
184 1 2.646199 27.826997 18.519605
185 1 5.646665 29.481725 6.801581
186 1 34.946665 17.464861 7.863423
187 1 31.531706 2.037049 0.516254
188 1 15.147732 1.875067 31.174977
189 1 23.921492 34.314249 8.237720
190 1 29.167809 36.540779 18.971677
191 1 18.266890 25.360847 23.959319
192 1 19.946630 33.621575 23.450126
193 1 14.399545 30.293594 22.425523
194 1 20.307051 28.843910 32.979626
195 1 2.729648 15.657202 29.679788
196 1 24.900768 3.226845 33.870969
197 1 24.175379 8.012257 3.333994
198 1 34.622876 5.406106 12.967743
199 1 7.238837 32.598110 3.118624
200 1 24.351869 26.584925 33.459014
201 1 11.366818 12.594659 13.740945
202 1 29.249417 18.867448 7.139824
203 1 18.517527 12.289757 26.196699
204 1 15.460941 25.491840 18.630866
205 1 13.600088 17.867473 31.586208
206 1 23.243737 22.954425 1.877977
207 1 14.469464 22.907493 26.081675
208 1 21.915512 2.174935 30.028706
209 1 13.234549 36.798812 11.370214
210 1 18.189930 20.170577 29.214167
211 1 8.668486 17.305870 33.966756
212 1 29.789629 32.487603 24.751104
213 1 16.440473 34.831376 3.870489
214 1 5.588741 25.912017 37.046189
215 1 6.281638 35.583984 13.892087
216 1 19.249932 6.668155 16.932820
217 1 0.509833 16.490492 37.474411
218 1 10.446020 29.790326 9.564146
219 1 23.535033 33.582132 25.304415
220 1 34.261454 17.664814 16.611315
221 1 29.209038 10.848751 22.837919
222 1 17.477945 21.710143 18.189374
223 1 3.509059 33.780380 9.046669
224 1 22.609972 31.938347 4.647972
225 1 31.794617 17.484262 16.843691
226 1 9.341024 6.773343 5.461852
227 1 27.633716 30.285779 10.715703
228 1 20.207152 29.642601 30.017237
229 1 4.690497 21.747877 23.576522
230 1 19.338502 19.692062 23.966487
231 1 19.974540 13.723862 28.410983
232 1 25.306264 0.698259 22.463855
233 1 15.452092 13.614864 36.221407
234 1 18.939774 23.788144 0.819615
235 1 8.268041 35.025860 28.472978
236 1 0.585790 5.473293 28.035785
237 1 37.658955 33.874991 25.497421
238 1 15.438992 11.561256 16.617821
239 1 34.274999 32.387219 25.067053
240 1 36.826091 36.748059 33.143855
241 1 16.213301 3.976186 28.384095
242 1 30.002963 17.118167 3.036660
243 1 35.773905 32.770776 25.883396
244 1 20.190089 1.722195 8.033586
245 1 38.203694 27.384491 4.303690
246 1 33.740209 33.584754 30.745699
247 1 31.114145 19.114432 2.430931
248 1 26.003102 3.636857 11.644467
249 1 12.808503 0.651713 34.334461
250 1 23.318676 20.188062 29.641713
251 1 25.047998 37.772548 5.963257
252 1 4.107833 29.023076 36.162163
253 1 34.112312 6.622424 31.183772
254 1 13.480999 30.831719 8.548626
255 1 4.379082 8.423602 11.245830
256 1 37.284052 23.924414 34.537959
257 1 9.199181 25.599945 29.363549
258 1 24.106015 8.684811 24.136884
259 1 29.387144 26.575104 25.222570
260 1 7.855701 33.999063 3.269045
261 1 16.079008 35.129479 9.712859
262 1 33.746975 24.988003 1.774069
263 1 23.133933 2.880331 4.893412
264 1 6.553223 30.836259 26.817252
265 1 23.157901 37.567912 36.459905
266 1 19.724881 17.752485 22.789643
267 1 33.430234 14.142060 31.869555
268 1 14.737333 33.989416 17.295691
269 1 4.132506 12.896415 27.283756
270 1 24.138514 9.708197 4.397137
271 1 14.634306 11.094094 22.306571
272 1 21.637968 24.131628 19.585048
273 1 28.477399 0.787036 36.261892
274 1 25.495118 14.117337 25.733874
275 1 0.313397 35.493429 11.215657
276 1 8.886559 37.112389 13.691665
277 1 38.225293 17.487053 20.818910
278 1 11.449249 6.069504 15.302589
279 1 10.983202 18.593336 29.668303
280 1 19.396323 29.751161 20.594916
281 1 11.224366 6.061056 7.690125
282 1 8.884337 12.979455 16.196365
283 1 29.165442 33.622253 11.083098
284 1 2.486805 1.640096 13.307621
285 1 32.666074 30.584043 17.741388
286 1 37.990273 9.738849 11.200670
287 1 9.554444 20.415537 27.054773
288 1 18.859899 21.499872 36.931597
289 1 7.713428 19.789841 33.279845
290 1 12.358216 31.258562 32.726436
291 1 24.726490 38.121875 30.267069
292 1 17.975658 28.757501 21.287580
293 1 14.358573 30.199512 34.771920
294 1 4.820117 14.400840 36.497359
295 1 22.334885 10.440195 4.502857
296 1 36.363406 2.134553 14.217574
297 1 31.454492 27.483448 18.464039
298 1 4.008913 0.553664 21.574563
299 1 5.397758 13.971938 15.919362
300 1 22.041635 19.104631 0.200475
301 1 6.222932 21.883892 3.313865
302 1 18.869220 36.754613 20.014936
303 1 13.887820 27.401820 11.973899
304 1 5.248846 31.673225 17.922517
305 1 15.010858 11.147648 37.674685
306 1 15.171527 1.937102 34.991036
307 1 35.716504 1.772099 13.709144
308 1 19.221242 8.813849 8.260623
309 1 37.988851 16.587691 6.199099
310 1 11.656675 0.463156 18.695192
311 1 17.263725 11.723330 14.568489
312 1 33.633589 12.035881 6.325166
313 1 36.107794 14.835810 16.406032
314 1 32.200754 22.319105 33.287823
315 1 26.774730 36.695978 24.582892
316 1 17.416057 19.409032 33.683657
317 1 25.689144 26.209282 27.440578
318 1 28.729279 35.382420 9.078661
319 1 25.055159 14.142853 17.286131
320 1 12.304379 11.229184 34.612087
321 1 9.679628 36.806837 36.636642
322 1 34.995027 11.569014 4.479643
323 1 0.885882 31.297071 0.590062
324 1 7.331951 38.112400 23.247262
325 1 26.658288 14.500466 29.810537
326 1 18.726819 35.905967 35.525995
327 1 21.328132 12.893975 20.306148
328 1 7.801147 18.999679 38.105134
329 1 9.714894 0.147414 28.746176
330 1 8.540154 33.982913 26.893002
331 1 6.996686 30.738987 9.142189
332 1 37.833654 2.233526 5.960114
333 1 0.870386 36.020008 31.564501
334 1 1.755729 17.745253 11.473088
335 1 25.046810 2.812276 24.937479
336 1 0.571515 4.675594 4.793391
337 1 12.089198 20.196369 23.202977
338 1 31.695145 16.416206 20.138450
339 1 6.606772 32.550268 32.684318
340 1 8.789681 0.252722 19.064243
341 1 19.984175 12.268239 3.273384
342 1 28.188297 0.263091 29.199238
343 1 17.481180 2.735135 31.174139
344 1 27.164703 21.472872 15.784028
345 1 34.146195 4.352592 14.882600
346 1 19.868619 21.666660 33.782346
347 1 22.591423 0.691807 10.441266
348 1 11.747121 31.794100 35.227373
349 1 19.522323 19.165857 23.742433
350 1 28.421535 32.870906 26.172616
351 1 20.201023 7.395327 37.125072
352 1 27.324913 25.959951 19.987028
353 1 8.271537 19.584618 37.975559
354 1 0.417181 26.485529 27.167409
355 1 8.233438 11.674805 9.486622
356 1 12.374189 16.284264 8.535828
357 1 0.496778 3.951562 24.485014
358 1 26.027607 15.995113 32.924647
359 1 6.670984 21.023541 17.286187
360 1 30.170149 0.675680 19.858574
361 1 16.686878 7.053387 6.595863
362 1 17.929410 31.821643 1.497574
363 1 22.024837 14.257984 21.520944
364 1 15.082019 27.860035 9.843918
365 1 3.031677 25.913036 4.117482
366 1 26.089892 3.304871 21.292437
367 1 1.472102 8.816589 8.858826
368 1 14.002197 35.768720 15.874167
369 1 14.805367 37.608428 13.496474
370 1 7.812230 9.170122 7.658504
371 1 21.581129 24.305852 35.971936
372 1 31.020312 23.549693 24.565115
373 1 20.750539 12.189867 0.019967
374 1 11.229278 8.102347 5.847987
375 1 26.846969 11.188304 4.143270
376 1 33.874116 17.853661 0.751203
377 1 19.071130 27.127695 15.998525
378 1 15.569277 34.226969 14.594638
379 1 11.100966 15.838736 3.437203
380 1 4.975834 11.201311 0.122968
381 1 13.242351 32.737126 29.422387
382 1 26.355945 13.166751 14.760264
383 1 24.538869 35.048215 18.248845
384 1 6.754553 20.753705 35.224657
385 1 0.260840 19.166103 26.241537
386 1 19.388955 2.402331 10.429910
387 1 13.005008 7.442940 38.258903
388 1 20.172957 30.839990 11.464607
389 1 17.191649 0.919874 8.888535
390 1 21.864688 36.435994 37.338810
391 1 15.675098 25.137480 24.436428
392 1 16.680428 37.351496 13.879136
393 1 4.237743 35.792045 30.464112
394 1 29.312368 3.738428 36.736656
395 1 36.122613 19.510437 22.324329
396 1 25.190312 34.258360 13.365939
397 1 33.055934 18.494908 16.668563
398 1 8.167259 5.043901 8.349153
399 1 37.988099 15.251439 0.770275
400 1 32.132123 20.223201 20.406104
401 1 29.187569 29.135008 18.930390
402 1 5.492442 5.417705 7.290151
403 1 23.727663 19.352144 36.530452
404 1 10.989784 8.230213 34.345754
405 1 29.089966 9.249562 32.728665
406 1 32.561557 30.232330 34.086681
407 1 14.640231 13.495355 3.047244
408 1 27.837543 26.205288 10.861116
409 1 6.760441 24.658010 32.369179
410 1 35.803202 32.833444 24.584641
411 1 19.497186 33.764310 3.334332
412 1 16.855534 26.306781 0.580277
413 1 31.000411 14.587166 37.536944
414 1 36.746544 1.010755 3.279908
415 1 12.115506 7.602289 32.839666
416 1 5.881147 34.509185 31.141557
417 1 4.593440 17.508355 5.398853
418 1 6.238165 37.436476 32.683191
419 1 17.123363 18.935147 14.003407
420 1 26.489013 2.266081 34.947517
421 1 8.236542 17.497893 1.454758
422 1 11.259600 8.062130 10.363478
423 1 34.428110 30.435512 30.221827
424 1 23.011418 30.701111 17.917536
425 1 7.423587 32.308074 23.148789
426 1 12.487771 25.056203 7.754594
427 1 18.773391 9.539735 26.058369
428 1 27.249574 15.264365 13.958484
429 1 2.308763 37.341708 4.037923
430 1 11.157069 19.098783 20.758319
431 1 25.482627 11.809545 30.724120
432 1 13.237234 19.173513 23.191381
433 1 29.308723 9.848336 27.354109
434 1 28.450976 35.231172 11.955145
435 1 20.532642 13.817771 0.717959
436 1 6.047123 12.076675 15.483745
437 1 28.428526 5.727563 6.467199
438 1 27.096763 21.658535 26.749697
439 1 8.444942 13.253361 2.831811
440 1 0.129670 12.791710 23.128771
441 1 14.621137 8.113723 9.029212
442 1 23.945602 16.399704 36.853438
443 1 36.049293 0.546158 19.673348
444 1 10.272412 25.482578 23.178952
445 1 26.830496 34.062776 13.267280
446 1 9.641736 13.368244 27.750167
447 1 34.601590 16.338163 13.731723
448 1 37.294722 9.031015 32.918238
449 1 4.486678 11.250462 26.080571
450 1 6.250582 2.728126 37.427362
451 1 16.280902 13.283426 33.007306
452 1 23.092361 31.552064 33.643407
453 1 27.630656 3.800021 6.865953
454 1 7.388844 31.685783 38.211955
455 1 36.034517 26.025365 10.820917
456 1 15.345405 26.955651 2.734002
457 1 16.849064 36.336203 32.476052
458 1 8.978055 16.527011 3.866510
459 1 2.054427 32.925651 33.340957
460 1 16.834427 34.737115 29.169114
461 1 7.090491 29.729795 26.193598
462 1 9.801155 7.024904 29.709343
463 1 22.759117 13.684045 33.449866
464 1 9.954364 2.186250 0.016764
465 1 7.046309 19.318127 8.103253
466 1 24.352657 21.966417 36.200538
467 1 33.846992 30.864359 33.054678
468 1 21.522404 23.436324 20.152686
469 1 34.401807 27.243519 20.591627
470 1 13.986255 2.528622 7.897601
471 1 6.944961 15.940930 13.391719
472 1 15.641870 26.201959 0.856672
473 1 31.405296 20.954893 15.118392
474 1 27.871199 18.253002 5.808062
475 1 3.802436 36.206898 37.497256
476 1 20.639540 1.919654 29.945088
477 1 2.911758 19.673092 22.835224
478 1 10.692612 29.091182 27.126133
479 1 18.725733 11.982103 17.812805
480 1 7.647492 19.796254 18.629732
481 1 33.199536 26.249254 23.065864
482 1 2.056669 2.292344 26.561629
483 1 33.685064 9.296780 7.327490
484 1 38.040181 2.023442 34.715930
485 1 35.678308 6.948832 14.373570
486 1 8.389738 2.816904 5.060191
487 1 26.215876 30.405899 5.029886
488 1 25.942501 16.470075 11.628708
489 1 1.468238 38.013747 3.430922
490 1 13.823138 19.124807 11.986128
491 1 32.797251 38.201092 21.302225
492 1 13.428176 8.712616 8.530661
493 1 10.574290 13.928927 20.854869
494 1 34.357704 29.293594 26.476322
495 1 22.331070 15.720145 4.071339
496 1 11.004282 17.627089 18.305428
497 1 16.149674 10.562835 7.272818
498 1 36.646568 33.954385 23.686803
499 1 3.309317 3.346928 36.291349
500 1 34.476289 12.186929 38.022728
501 1 25.950544 0.580513 14.238263
502 1 18.018064 26.042822 6.513539
503 1 36.381303 20.709800 16.338398
504 1 21.216616 6.078305 33.817774
505 1 3.492977 15.552374 25.917982
506 1 26.445447 1.382890 14.554861
507 1 34.520869 10.176862 20.473546
508 1 11.665736 34.332127 16.363981
509 1 6.178743 5.199651 18.065780
510 1 11.475296 16.339646 27.749469
511 1 10.493751 28.448964 7.463937
512 1 1.339240 7.273301 34.029938
513 1 14.219683 25.981105 29.638485
514 1 2.417655 36.321618 34.171846
515 1 10.477929 20.661554 18.743520
516 1 26.625634 21.349748 26.459611
517 1 6.304894 38.214444 21.222389
518 1 34.660692 12.169326 26.997656
519 1 4.825922 8.411407 32.229876
520 1 13.305066 22.356200 1.833960
521 1 12.807437 15.986935 10.222192
522 1 26.833584 12.846537 2.626287
523 1 33.440200 11.125558 29.468343
524 1 5.266680 35.892691 36.960649
525 1 5.423513 23.498305 34.562615
526 1 12.848163 10.649011 4.246796
527 1 23.264226 12.658792 33.847865
528 1 8.931525 17.083471 10.494688
529 1 21.238420 4.925964 12.859773
530 1 13.553689 14.603616 29.339072
531 1 27.212086 28.358533 21.650561
532 1 22.697905 37.134171 32.355018
533 1 3.187038 21.986560 6.188454
534 1 36.514076 2.268328 8.866118
535 1 6.601518 16.065689 16.480720
536 1 21.103422 32.993457 32.670398
537 1 9.433928 17.896310 23.724197
538 1 33.745847 19.006740 13.990492
539 1 29.462532 35.047849 19.822330
540 1 22.061959 25.378977 22.851655
541 1 2.133482 6.299365 37.721893
542 1 26.258563 17.066555 26.528703
543 1 21.242035 21.958363 0.397829
544 1 1.750843 4.801622 16.885558
545 1 14.410603 24.209181 31.350996
546 1 11.361228 8.657159 17.974783
547 1 22.722527 18.507316 15.058404
548 1 10.963753 22.010388 20.679836
549 1 5.946102 10.749999 28.855321
550 1 8.631082 36.517583 4.393951
551 1 18.786973 18.999927 34.308949
552 1 25.492538 11.102184 6.290059
553 1 6.943983 0.737273 0.586649
554 1 23.214238 33.751829 25.602225
555 1 18.322356 9.423118 31.334390
556 1 10.554449 32.558459 37.420879
557 1 28.212379 26.903943 27.738759
558 1 37.783345 1.162079 33.047012
559 1 18.590491 31.194489 13.370661
560 1 23.120455 24.542209 14.735582
561 1 13.613934 13.880555 14.978350
562 1 17.082400 36.208340 1.829763
563 1 13.025577 33.421817 18.861025
564 1 20.304729 35.980515 33.393830
565 1 13.104123 21.362984 5.914311
566 1 22.318914 8.193508 33.845297
567 1 34.095289 8.717127 34.816307
568 1 21.490483 3.254181 33.662729
569 1 12.366104 33.266576 19.629617
570 1 17.176279 26.147399 34.261881
571 1 25.915265 38.165319 13.580026
572 1 38.214797 13.703678 33.734797
573 1 9.656119 17.489716 5.556398
574 1 35.105219 1.881697 5.911039
575 1 14.660456 15.230225 13.414691
576 1 14.935897 21.013481 28.241569
577 1 21.469187 30.340725 11.651426
578 1 6.553862 15.328836 28.146663
579 1 20.446641 34.862781 27.408851
580 1 20.285920 38.208560 5.637193
581 1 17.042499 1.798599 19.961118
582 1 8.093214 17.961399 13.796721
583 1 5.061330 24.292564 22.497953
584 1 14.002419 8.531289 30.749393
585 1 32.011293 12.742118 3.363840
586 1 16.365878 6.424933 1.664214
587 1 11.436071 0.447428 8.066699
588 1 14.596348 24.239309 37.404643
589 1 17.341280 2.907763 12.403502
590 1 20.615079 18.629618 18.954635
591 1 14.590959 34.225871 10.474907
592 1 20.163861 32.430878 21.096662
593 1 17.306677 4.666356 15.494379
594 1 36.826075 16.116291 28.791691
595 1 1.336170 25.836538 1.309882
596 1 26.893385 0.391999 6.944148
597 1 0.282834 9.951270 19.938405
598 1 3.383941 16.582779 2.274069
599 1 31.776278 9.405066 17.319237
600 1 32.956913 4.176226 8.667782
601 1 1.001204 5.477768 30.769805
602 1 7.568144 20.860587 20.195094
603 1 6.112880 37.089471 12.912609
604 1 34.516724 27.234774 25.217879
605 1 34.760717 29.891005 16.365508
606 1 32.101509 10.611813 30.618098
607 1 26.017642 12.979410 26.417201
608 1 6.195568 21.026986 22.431946
609 1 17.869285 22.666585 2.802207
610 1 9.680723 8.798948 7.565353
611 1 16.438634 25.422441 0.979895
612 1 25.853221 14.476174 15.823017
613 1 13.797299 9.393168 24.555832
614 1 30.545882 5.597234 25.277385
615 1 12.945888 15.343354 13.386013
616 1 28.452077 22.775561 20.035063
617 1 37.865002 4.117920 7.278397
618 1 19.424765 20.855819 14.568843
619 1 13.769151 29.500298 10.583927
620 1 20.243790 21.848619 29.741129
621 1 29.205595 13.476073 23.236527
622 1 14.655701 13.017809 37.233052
623 1 16.996773 3.922923 31.492790
624 1 30.507390 1.269995 16.493293
625 1 11.796986 37.641697 14.267795
626 1 28.243619 17.425809 20.400959
627 1 29.107769 34.809635 25.843223
628 1 35.442548 22.225836 7.508156
629 1 27.003868 38.251924 30.594884
630 1 6.981595 14.771260 9.952291
631 1 17.439434 12.386960 34.495017
632 1 10.481722 0.158311 29.562407
633 1 24.444170 30.239165 33.765469
634 1 24.901432 31.327558 10.451282
635 1 11.960450 5.079577 20.874327
636 1 3.656593 22.006178 7.092814
637 1 30.970666 4.985955 12.592002
638 1 2.820048 35.004173 9.673595
639 1 37.238214 6.928708 12.942120
640 1 25.089189 9.556954 18.262338
641 1 1.863880 22.160837 17.826339
642 1 18.792497 9.266770 13.080135
643 1 25.200318 24.553059 28.850473
644 1 28.053085 12.318199 29.500762
645 1 17.994873 13.312396 33.714947
646 1 0.696615 7.469824 30.391721
647 1 1.105485 36.285609 37.994437
648 1 23.063889 10.659592 17.280569
649 1 17.760463 32.074888 19.695278
650 1 4.794432 21.509214 31.724251
651 1 21.426542 16.088901 22.472710
652 1 2.705174 30.299021 15.288845
653 1 23.127212 14.517866 36.114682
654 1 13.997650 24.058878 30.500549
655 1 25.003321 25.400281 2.619557
656 1 0.248253 5.747233 35.056610
657 1 18.391414 37.917111 4.019007
658 1 23.860799 2.979839 16.194813
659 1 15.289186 27.816236 27.866426
660 1 3.477406 9.202112 0.736195
661 1 26.960988 26.396153 32.612396
662 1 8.073442 16.492912 14.759408
663 1 33.966958 7.875710 20.457197
664 1 3.821413 24.564677 14.029955
665 1 27.433327 8.444371 33.810736
666 1 5.907066 21.177953 8.037498
667 1 11.763363 20.260635 26.313059
668 1 29.369717 25.061789 22.708211
669 1 20.634279 17.683878 31.983489
670 1 28.874923 24.978766 10.687057
671 1 26.286597 27.499158 33.459557
672 1 18.383866 12.334646 27.559683
673 1 22.722678 33.977987 13.770834
674 1 33.026916 20.815664 13.948169
675 1 36.371726 31.725101 11.479440
676 1 28.393834 37.167607 6.250410
677 1 8.270799 27.693990 38.184404
678 1 19.010789 28.267837 29.906805
679 1 28.956631 31.557144 11.444320
680 1 12.128059 33.819275 28.722071
681 1 33.253847 21.498465 4.358275
682 1 18.500537 32.904166 4.107361
683 1 37.260904 23.414700 18.583576
684 1 30.367340 37.254900 17.558162
685 1 36.075919 7.054037 24.831517
686 1 8.064251 5.851112 33.106442
687 1 29.961484 29.892640 2.756210
688 1 23.261927 35.726269 25.237008
689 1 24.017510 0.097664 19.961269
690 1 22.192191 18.448694 8.721021
691 1 9.615254 13.862599 31.665455
692 1 13.420836 28.378071 17.663457
693 1 23.423583 21.235100 10.672225
694 1 3.610631 31.560182 29.709622
695 1 34.888793 3.219185 11.057528
696 1 37.656955 26.514986 2.197940
697 1 13.908378 6.555037 18.290643
698 1 27.900477 21.850121 2.540052
699 1 9.155176 14.125335 14.655923
700 1 16.425917 21.736293 27.500517
701 1 2.585236 21.016141 25.613579
702 1 13.469730 30.056475 34.874710
703 1 33.579370 6.117873 15.961472
704 1 18.524698 15.023013 16.081142
705 1 35.560713 17.011016 22.170155
706 1 13.098368 25.358124 23.527907
707 1 31.534470 11.218804 3.149463
708 1 3.598953 33.810845 16.499716
709 1 30.572246 9.338645 5.461094
710 1 25.032956 37.761267 30.422394
711 1 36.446466 2.752927 4.539383
712 1 15.914974 31.489852 15.097775
713 1 10.222526 14.256573 35.061716
714 1 9.980218 33.250817 25.697133
715 1 1.471477 8.308750 10.542191
716 1 26.124531 33.406169 29.235257
717 1 18.033715 14.809972 11.274272
718 1 35.392773 15.636964 10.115868
719 1 23.188792 31.067591 34.082043
720 1 34.645828 3.207938 9.031879
721 1 1.093831 25.432576 4.238785
722 1 18.604656 8.788562 6.594134
723 1 17.901270 18.255923 10.913966
724 1 35.334813 10.442314 6.946119
725 1 3.804818 31.020570 23.342448
726 1 4.418072 31.048461 2.000091
727 1 3.914275 11.309120 32.142208
728 1 24.195535 34.970044 1.410777
729 1 12.601048 14.523149 2.238180
730 1 4.466964 22.661215 21.655981
731 1 10.613432 25.699420 16.904247
732 1 4.514000 10.325064 27.957258
733 1 5.388540 21.123298 15.880030
734 1 6.753049 15.267973 13.519161
735 1 30.759933 28.511876 16.485501
736 1 7.139121 36.933805 24.350735
737 1 4.091051 1.301844 36.526006
738 1 0.446130 2.563179 3.969629
739 1 18.901068 29.119497 28.124914
740 1 36.005721 34.939765 15.267202
741 1 8.161976 30.056540 21.353496
742 1 23.740707 24.258607 5.823496
743 1 25.304762 36.467814 37.747541
744 1 20.538668 8.749374 20.167632
745 1 27.387849 22.899375 5.532545
746 1 22.205000 5.221052 17.705941
747 1 11.873199 8.343804 5.487277
748 1 13.132750 2.423442 34.406117
749 1 23.063573 24.551685 7.503834
750 1 17.716356 27.158518 14.397206
751 1 15.042806 28.679317 35.770760
752 1 6.284788 17.255997 23.918734
753 1 21.727634 26.480333 1.976991
754 1 18.636419 36.014906 34.683206
755 1 37.871722 36.106019 14.631467
756 1 30.766087 4.825586 6.497709
757 1 17.884319 19.096378 11.450017
758 1 22.218867 12.989644 16.037778
759 1 34.642904 15.713413 5.528874
760 1 27.555161 27.564878 7.121668
761 1 9.465443 37.545787 26.063830
762 1 28.621171 11.320527 7.709009
763 1 19.960459 19.797545 2.688212
764 1 38.054237 5.263566 7.404938
765 1 35.706950 16.982446 29.763488
766 1 2.676650 35.467974 0.062341
767 1 14.292594 2.178291 14.049720
768 1 9.609704 14.702627 16.545825
769 1 33.079972 6.725512 23.817996
770 1 31.527758 19.810730 14.009748
771 1 11.335524 22.959990 24.529210
772 1 19.074685 15.097306 28.501367
773 1 31.384921 29.049942 11.725411
774 1 25.810576 10.350239 17.360479
775 1 19.921784 26.109218 20.264283
776 1 18.686653 25.479894 35.152821
777 1 33.948635 10.422692 37.842595
778 1 10.396951 25.152458 8.346947
779 1 0.300216 29.003624 6.229692
780 1 10.745931 4.793420 34.398100
781 1 35.154877 22.008420 31.103678
782 1 33.217666 18.975196 24.674857
783 1 27.972825 32.236336 30.321880
784 1 16.410034 5.477901 30.599711
785 1 35.376443 35.811981 3.020752
786 1 29.431762 34.820615 12.396398
787 1 33.714850 33.259641 29.628772
788 1 5.126752 33.128757 36.987974
789 1 13.031685 8.222055 28.434431
790 1 4.640255 36.639687 0.965821
791 1 23.182522 37.409676 18.886913
792 1 30.930688 30.552278 13.881758
793 1 3.306028 12.909590 31.697638
794 1 8.572920 27.998060 32.694817
795 1 13.112025 22.409545 12.369147
796 1 25.720791 2.995497 21.126865
797 1 7.484712 33.869769 38.105027
798 1 18.710244 3.907105 25.818073
799 1 25.722994 29.384827 5.746999
800 1 11.361029 6.965652 24.300712
801 1 14.743698 21.210976 6.343824
802 1 18.936494 24.209201 35.908874
803 1 25.364868 19.926566 8.856923
804 1 28.277337 3.115516 8.801052
805 1 21.822209 38.082978 0.219975
806 1 14.396983 16.951613 18.447873
807 1 29.459417 25.850222 34.962901
808 1 15.165391 13.794923 12.202843
809 1 34.878106 37.837467 36.935822
810 1 18.453869 29.596903 23.983712
811 1 10.706253 5.095002 10.219059
812 1 33.370368 12.569667 17.557000
813 1 6.949017 5.352579 9.931132
814 1 27.737154 26.195340 14.869703
815 1 24.266119 25.184205 5.041914
816 1 32.581723 5.831099 37.879292
817 1 30.778181 26.104107 8.479293
818 1 11.390924 11.956342 33.658185
819 1 35.332044 15.251338 33.471858
820 1 27.789518 32.721189 1.953220
821 1 32.016628 21.431901 11.153636
822 1 33.617456 24.589378 32.136139
823 1 26.697172 7.119516 15.152614
824 1 14.792642 22.413852 36.539703
825 1 36.448508 35.734393 10.246569
826 1 32.973130 5.440081 28.186578
827 1 15.862286 7.831158 12.029379
828 1 35.421492 11.651958 20.902721
829 1 5.613079 33.376804 21.016867
830 1 19.999289 14.825812 6.107121
831 1 23.376302 21.178606 33.985605
832 1 23.196197 9.878239 19.596683
833 1 6.588410 14.253049 5.615842
834 1 21.645748 0.872121 3.617919
835 1 5.177283 35.866620 22.626336
836 1 19.014443 11.444805 16.274227
837 1 16.426244 3.341956 14.598317
838 1 37.512339 8.088920 18.758155
839 1 11.324885 27.588539 3.507994
840 1 28.438883 25.778460 36.602681
841 1 12.073805 33.372017 33.622919
842 1 4.364428 32.101389 8.235540
843 1 27.521007 29.320824 23.084499
844 1 8.352586 1.886899 8.436696
845 1 34.565863 1.013784 24.671509
846 1 9.235568 27.964460 13.681690
847 1 33.138273 32.616610 16.735445
848 1 25.283520 34.273308 4.401617
849 1 28.907169 16.500395 24.351590