ITEM: TIMESTEP
0
ITEM: NUMBER OF ATOMS
2657
ITEM: BOX BOUNDS pp pp pp
0.0 32.542433
0.0 32.542433
0.0 32.542433
ITEM: ATOMS id type x y z vx vy vz fx fy fz
1 1 3.679349 20.730969 15.170877 -0.02890290 0.02031250 0.01062629 -0.00005682 0.00004296 0.00005276
2 1 8.824322 8.773707 18.904810 0.05491077 0.01080149 0.01779949 0.00001536 -0.00012394 0.00007583
3 1 18.775967 29.845064 20.372317 -0.03203596 -0.04791106 -0.05224825 -0.00001151 0.00002078 -0.00013242
4 1 20.245989 20.134271 6.076250 -0.03679395 -0.05241506 0.01186949 -0.00003549 -0.00014750 0.00002373
5 1 3.175596 14.565873 9.713755 0.05427976 0.01563101 0.01722918 -0.00005963 -0.00009580 -0.00000169
6 1 7.849185 9.217939 27.393717 -0.00448089 0.00454493 -0.02532266 -0.00004175 0.00005482 -0.00006131
7 1 15.939494 17.617584 6.087662 -0.00519655 -0.03591627 0.04644582 0.00009923 -0.00013307 -0.00009428
8 1 1.396859 9.332984 27.890964 0.02949600 0.02478789 -0.01470101 -0.00008789 0.00002160 -0.00003622
9 1 20.839974 11.723029 3.426313 0.05263693 -0.05682091 0.03378563 0.00004145 -0.00007297 -0.00010958
10 1 4.277959 3.949809 31.966856 -0.00693261 -0.00199478 -0.07747307 0.00018716 -0.00002181 0.00013338
11 1 19.410758 19.109729 2.776774 -0.00428509 -0.06742802 -0.00032318 0.00002283 0.00002145 0.00000316
12 1 6.170205 28.525285 17.565635 -0.03044088 0.02678941 0.01416574 1716814.09530908 -681485.46091900 701895.21325480
13 1 2.578796 20.911886 14.261420 0.06140445 -0.01445947 0.02657390 -0.00000435 0.00016346 -0.00009650
14 1 29.962123 4.720845 0.027150 0.03897716 -0.02244055 0.00808128 -0.00013081 -0.00019247 -0.00007146
15 1 23.606856 1.877381 11.792633 0.02275865 0.03177090 -0.01587779 0.00001661 0.00002712 -0.00001900
16 1 12.979749 16.755257 6.022912 -0.01332452 -0.04683995 -0.03979336 -0.00010672 -0.00008902 0.00009577
17 1 0.724748 10.842210 3.660446 0.03066541 -0.01033987 0.01985237 -0.00000656 -0.00005230 -0.00002520
18 1 19.159606 13.636232 30.622336 -0.01029362 -0.02396346 0.06263356 -0.00011162 0.00001032 -0.00010806
19 1 15.998758 3.794632 23.320777 -0.00628794 0.01629086 -0.05106240 -0.00002938 0.00009261 -0.00011530
20 1 28.977376 26.703850 26.273136 -0.01105297 -0.01855828 0.01441056 0.00003628 -0.00002251 -0.00017921
21 1 2.180985 10.691608 28.370907 -0.01724238 -0.03608032 0.05366742 -1463691.55402743 -1872887.53144406 -634471.47198744
22 1 0.509030 16.996701 30.953707 -0.04770265 0.08276355 0.02760041 -0.00020292 0.00007813 -0.00008371
23 1 24.175645 4.289367 15.543298 -0.00111943 -0.00951980 -0.07077428 -0.00002779 -0.00003945 0.00017527
24 1 21.260254 22.804083 0.326989 0.00886587 0.00119480 -0.02418590 -0.00007138 -0.00001413 -0.00013058
25 1 1.023202 21.186806 27.824554 -0.01817669 0.04262488 -0.07558272 -0.00004820 0.00004623 0.00013444
26 1 15.978535 7.980929 2.694527 0.03044564 -0.05321349 -0.00106357 -0.00008507 0.00003776 -0.00002701
27 1 23.891297 12.078184 10.921642 0.03003593 0.06130211 0.01238620 -0.00003540 -0.00006521 0.00010557
28 1 18.542014 13.887387 10.716193 0.00196038 0.01001698 0.01686669 85.23896699 127.87340068 9.22831199
29 1 3.590388 8.674740 12.769515 -0.03017462 -0.02557336 0.01301754 -0.00002917 -0.00006886 -0.00003262
30 1 23.194634 8.648909 32.469936 -0.03350353 -0.02046057 -0.01523916 8278.45164441 -6375.47322394 -3035.19380636
31 1 3.441836 16.112544 18.870570 0.03873912 0.03903391 0.06106116 -136.82237608 -184.08341549 1053.36471901
32 1 20.886715 11.123852 11.210703 0.01148506 0.03094715 -0.02736236 0.00145536 -0.00173668 0.00027541
33 1 15.317884 2.295571 24.309121 0.03240274 0.03260479 -0.03665512 0.00018579 0.00004817 0.00005945
34 1 19.522041 30.374772 22.697757 -0.03790392 -0.00281498 0.01849743 -0.00007408 -0.00003851 -0.00009270
35 1 15.677517 10.759545 16.984393 0.00937365 -0.03164644 -0.02048077 0.00017888 0.00001148 0.00013839
36 1 10.304140 2.035649 6.225299 -0.00171059 -0.01756082 0.00967151 0.00013258 0.00007673 0.00001155
37 1 11.412084 15.732300 26.110577 -0.00740952 -0.02787832 -0.00753213 -0.00010169 -0.00019752 0.00009884
38 1 24.018942 29.398282 26.839090 -0.01445620 -0.01949517 0.05329186 -0.00015600 0.00013555 0.00004188
39 1 12.373295 0.009621 23.797621 -0.01599877 0.04672711 -0.03829091 0.00006673 0.00008991 0.00011023
40 1 11.335448 31.119653 2.549772 0.01561285 -0.00934170 0.02875364 0.00005425 0.00010022 -0.00010105
41 1 6.549310 19.180788 9.993951 -0.02712596 -0.00959700 -0.02712119 -1.19323989 -4.78674239 3.45177632
42 1 28.996096 23.010313 21.449851 0.04720078 0.03832785 -0.00939718 875803.32328619 -49674.50424169 344460.35700174
43 1 31.611989 29.347723 28.830746 -0.03734809 -0.00558931 0.04492982 -0.00023093 0.00000773 -0.00009635
44 1 29.917655 17.342252 7.189551 -0.06413120 -0.02102315 0.00680617 -0.00004962 -0.00007097 -0.00003449
45 1 28.982001 21.031569 2.053827 -0.04160083 -0.07855946 0.02636992 -0.00014946 0.00002139 0.00018591
46 1 25.514199 25.699189 19.550024 -0.08216829 -0.01836900 0.01722713 -0.00041038 0.00036475 -0.00034718
47 1 5.680365 30.192893 30.698000 -0.02146275 0.03246972 -0.02270744 -0.00001695 -0.00000852 0.00008320
48 1 13.812121 8.912329 3.076539 0.02490616 -0.06440646 -0.01501285 -0.00001291 -0.00003760 -0.00010908
49 1 18.255249 17.501041 1.522534 -0.00336586 0.02221059 -0.02819099 6103.51153714 -107528.68026653 173001.36665283
50 1 8.212925 11.233138 11.503174 -0.04092715 -0.04424244 -0.03145949 0.00000421 -0.00012241 0.00005090
51 1 24.000008 27.359950 10.959987 0.01485768 -0.01523913 -0.01457554 -205.29079797 143.59453904 13.46042248
52 1 24.061476 13.671589 9.837269 0.00542339 -0.05580126 0.03367084 1.80570180 0.22194618 0.93168857
53 1 10.021791 31.335938 25.768419 -0.05998247 0.00846649 0.02043683 -0.00000808 -0.00015673 0.00003418
54 1 30.638174 15.645928 2.794662 0.01522280 0.03075865 0.00494699 309.40123247 303.43022692 -79.53971447
55 1 28.098056 20.825952 12.426133 -0.02217895 -0.03274561 -0.01044799 -0.00008703 -0.00011058 -0.00005983
56 1 17.043992 4.503972 24.533376 -0.01668819 -0.01269408 -0.04549875 0.00007954 0.00003909 -0.00000059
57 1 13.929343 1.367905 14.336958 -0.04955504 -0.00143998 0.03297485 -0.00004163 -0.00011577 0.00010472
58 1 5.841081 13.699810 11.014211 -0.03966498 0.03548899 0.00919751 -0.00004910 -0.00016491 0.00010752
59 1 3.563953 21.296351 17.124482 0.00330012 0.02845130 -0.04474157 645.58158621 181.70549458 -54.71394247
60 1 9.376711 9.267924 31.096162 0.01412022 -0.01064264 -0.01820181 -6017829.80525128 7287141.54628882 -738455.24292758
61 1 9.821163 18.887903 19.669680 -0.06552538 -0.00890209 0.01689874 0.00008860 -0.00004978 0.00006956
62 1 17.748609 13.658981 16.728923 -0.06567231 0.01822503 -0.01910309 0.00002727 0.00020675 0.00009772
63 1 14.221804 8.461632 1.881842 0.02812561 0.02072588 0.04575703 0.00023224 0.00005701 -0.00009564
64 1 25.598938 30.493352 10.508604 0.03712065 -0.07805104 0.03079177 0.00127566 0.00218651 -0.00058688
65 1 20.056836 24.220830 4.492203 -0.02048380 -0.01697404 -0.02350124 694.15705060 891.23352983 286.60491693
66 1 21.034013 27.413011 31.175591 -0.05310689 -0.01275893 0.07626259 0.00000739 0.00032907 -0.00003228
67 1 4.314409 21.127490 7.770429 0.03069751 0.04068843 0.00542547 -0.00138594 0.00120170 -0.00142341
68 1 8.773967 12.818879 17.926931 0.02027490 -0.02620466 0.01286059 17504.97269638 30902.72800946 -6650.74378093
69 1 26.273749 18.713822 7.663569 0.00009544 -0.01645931 0.00517520 0.00002669 0.00009903 -0.00008527
70 1 28.293809 10.860760 10.083043 0.02781898 -0.04378452 -0.00783466 0.00048387 -0.00028367 0.00013365
71 1 29.150861 17.867170 11.587039 -0.03463114 0.00102535 0.07006789 0.00006690 -0.00011838 -0.00002928
72 1 11.995798 6.792897 25.557701 -0.00023795 0.06154223 -0.03146867 -0.00016328 -0.00017529 0.00003948
73 1 25.299005 31.999083 17.477408 0.04884749 -0.05380232 0.04377104 0.00007400 0.00001125 -0.00012726
74 1 19.968679 9.183046 16.122055 -0.05346684 0.00597080 -0.03086625 -9.84681628 2.18271027 -3.66881266
75 1 6.522228 3.242035 6.761662 0.02606335 -0.08533171 -0.00598084 -0.00009780 0.00003704 -0.00023192
76 1 5.803355 15.366672 11.728356 0.04110583 0.04944075 -0.02297702 -0.00018178 -0.00099942 0.00050735
77 1 8.766252 0.145511 25.310098 -0.05244131 0.02167987 -0.04674436 0.00022040 -0.00002583 -0.00008054
78 1 6.180976 12.550853 1.243114 -0.05969614 0.04116936 0.00369776 98581004.60148139 -100330036.65761632 -201342400.24615553
79 1 20.232533 23.033181 13.858552 0.00884285 -0.04308724 -0.04268469 -0.00011131 -0.00004574 0.00013717
80 1 23.067789 21.178632 6.717081 -0.01110903 -0.02150304 0.00705039 0.00031963 -0.00035782 0.00017633
81 1 10.329545 3.754283 16.286459 -0.01505823 -0.02914717 -0.01529165 -0.00018341 0.00005757 0.00004257
82 1 10.561207 27.974443 10.503398 -0.00269213 -0.00398659 0.02163265 -5988.93969858 -1779.12073680 2792.50947366
83 1 11.199625 20.522240 15.701835 0.03078211 -0.01581285 -0.05340890 0.00002704 -0.00007828 -0.00009626
84 1 8.796137 0.257061 19.755698 -0.01532043 -0.05606156 0.02608763 0.00022782 0.00004267 -0.00008017
85 1 16.471969 20.715257 32.123166 -0.00891147 -0.03688498 -0.00664798 -0.00055695 0.00110317 -0.00067890
86 1 21.470325 24.123596 12.788787 0.02017704 -0.02658825 -0.01566837 -0.00040123 -0.00058851 0.00038466
87 1 4.816118 22.086855 25.299101 -0.02341490 0.00870633 -0.02874017 -0.00011927 0.00000871 0.00011548
88 1 1.809965 3.866837 12.649034 0.01521460 0.02349557 0.04210093 -0.00007706 0.00003283 -0.00000113
89 1 3.704217 8.756246 26.761101 0.00959376 0.01312177 -0.03220733 -0.00474075 0.00585301 0.00480492
90 1 30.277110 14.087131 14.723832 -0.04146695 0.02985030 -0.03088099 0.00000641 0.00009349 0.00009061
91 1 5.128509 22.023709 29.603550 -0.04353155 0.03438367 0.00530704 -0.00001459 0.00011662 -0.00007307
92 1 26.043189 20.453360 19.990684 0.00973568 -0.04137079 0.02055098 -0.00106181 -0.00076138 -0.00051542
93 1 1.799060 21.510051 30.759637 0.03209012 -0.06315610 0.08323753 -0.00002304 -0.00001534 -0.00009604
94 1 13.173007 30.048430 4.378533 0.00403984 -0.04647740 0.03844645 -0.00005774 -0.00005153 0.00002735
95 1 23.508921 22.068293 26.055300 -0.02125638 -0.03941937 0.01428423 -0.00023578 0.00016304 0.00010699
96 1 20.997157 26.678593 12.258280 -0.05920095 0.04079696 -0.01057208 -0.00199264 -0.00053635 0.00079510
97 1 8.395691 26.045781 8.033574 0.00472256 -0.02953857 -0.01461707 -0.00104024 -0.00101657 -0.00144545
98 1 14.758284 8.858814 5.905746 0.01862595 -0.02338917 -0.02980849 -0.00001718 0.00014368 0.00003900
99 1 10.655559 11.011698 2.478757 -0.01104283 -0.00651539 -0.00143646 23.49033059 -31.22359394 -266.18479350
100 1 15.306476 12.991081 0.237763 0.04499171 0.01831358 -0.02872919 0.00019404 -0.00020723 -0.00030864
101 1 18.514411 10.117024 28.122692 0.03974077 -0.04662657 -0.03738518 0.00011910 0.00000129 -0.00007794
102 1 19.261808 22.460743 21.360064 0.02952356 0.05723047 -0.03213281 0.00010466 -0.00003730 -0.00008959
103 1 8.618176 26.065972 30.390410 -0.04511471 -0.00773394 0.02840581 0.00001800 -0.00006490 -0.00011190
104 1 7.326031 30.183479 9.820767 0.01777597 -0.04955989 0.05401108 -0.00125264 0.00109089 -0.00037377
105 1 2.664342 14.998510 21.646041 0.02265085 0.01524408 -0.07964813 0.00022548 0.00034423 -0.00111846
106 1 5.910240 1.549191 28.084526 -0.01446613 -0.01603629 0.01756853 -0.00013299 0.00001854 0.00001947
107 1 18.661807 22.179358 3.089344 -0.12018611 -0.02250413 0.02965352 -64.44937639 79.36018317 194.16585191
108 1 16.134173 13.469220 14.995288 -0.01171601 -0.04077662 -0.01533406 -0.00022608 0.00025158 0.00023166
109 1 19.403335 25.121656 21.404981 -0.03738937 0.02800350 -0.04158101 -0.00004325 -0.00003059 -0.00016122
110 1 9.779776 16.464368 26.354755 -0.04716384 -0.00412812 0.01898772 -0.00002818 0.00020347 -0.00005109
111 1 1.563388 11.843251 29.374638 0.03327645 -0.03177488 0.01143557 18.58889556 -34.66302806 -30.21137142
112 1 14.768101 31.029880 31.143464 0.06535383 0.00243386 -0.02241215 -0.00015336 -0.00013836 -0.00013864
113 1 1.846033 17.996054 25.780396 0.00892589 0.00365110 -0.00867288 -14.32421667 2146.96409815 831.54110054
114 1 21.805582 5.397488 4.444596 0.00298856 -0.01380280 -0.01300569 0.00005488 -0.00006014 0.00004337
115 1 30.899210 29.530450 6.779846 0.00437736 -0.00510354 -0.01117988 -0.00007234 0.00004597 0.00015592
116 1 25.236549 5.164120 1.399585 -0.00468642 -0.00385565 -0.03694590 0.00070103 -0.00085938 0.00023095
117 1 25.219289 13.133344 2.519986 -0.00562216 0.00044151 -0.03869425 -0.00001104 0.00014355 0.00003054
118 1 12.876564 24.517232 15.165858 -0.03973845 -0.04652126 0.01406587 0.00007711 -0.00012927 0.00014109
119 1 9.696469 6.058861 10.066023 -0.04579116 -0.04406447 0.03225902 0.00003008 0.00007305 -0.00019728
120 1 3.993318 9.117781 20.052737 0.03238357 0.03604184 0.00914567 -0.00021745 -0.00017620 0.00008408
121 1 8.447407 24.301561 17.816655 0.00771185 0.02155025 0.02427587 0.00009213 -0.00052712 -0.00000495
122 1 12.361798 3.625847 6.026503 -0.01438492 -0.03653905 -0.00002125 -0.00002737 -0.00009233 0.00005034
123 1 3.670226 1.381649 27.976103 -0.01232330 0.02589907 -0.05741272 0.00000560 -0.00011647 -0.00017567
124 1 17.753101 1.636750 0.004856 -0.01993959 0.02792927 -0.01715953 352.44504524 561.08890579 -945.24585211
125 1 22.721204 17.834614 9.721872 -0.02457888 0.01784816 0.06272245 -0.00011993 0.00090909 -0.00008188
126 1 14.194291 18.736234 24.350647 -0.00207627 -0.01769320 -0.01470423 -0.00003319 0.00001600 -0.00004695
127 1 25.893363 20.384817 13.184654 -0.06200354 -0.00544561 -0.01072369 -0.00002978 0.00011045 0.00005805
128 1 28.276322 8.039247 9.892106 0.03364745 -0.02038467 -0.02659832 -0.00004602 0.00000947 -0.00004493
129 1 6.346905 28.434424 5.987201 -0.04357072 0.04818211 0.03817334 -0.00001650 -0.00004488 -0.00007360
130 1 4.154635 5.430817 0.058239 -0.00268644 0.03688208 0.01026884 -0.00006473 -0.00013088 -0.00007996
131 1 13.848877 18.905302 23.366619 0.02449263 0.02639280 -0.02636280 0.00010948 -0.00006399 0.00013669
132 1 18.783175 3.472481 14.979375 0.04590805 -0.01968694 -0.01731900 0.00010496 -0.00005673 0.00000193
133 1 16.941757 31.170119 15.990940 -0.02050602 0.03180768 -0.00738630 0.00008989 0.00010381 -0.00007976
134 1 12.585200 12.336100 26.222601 0.03593306 -0.02904609 -0.00092091 -0.00010024 -0.00016281 -0.00004400
135 1 4.704374 26.256710 6.140230 -0.00037277 0.00483784 0.02808856 -0.00005534 -0.00006800 -0.00016491
136 1 31.988152 12.448421 5.247591 -0.01129671 0.00433185 0.01513093 0.00035388 -0.00086501 0.00065856
137 1 11.515348 24.898413 10.479776 -0.05554866 0.03261936 -0.02784593 0.00054821 -0.00116925 -0.00006396
138 1 18.422454 6.293244 7.004055 0.02538399 -0.02680896 0.03199554 0.00012541 0.00006280 -0.00004434
139 1 13.132341 17.588713 2.625151 0.03284154 0.00357315 0.04297889 -0.00028735 0.00015554 0.00022935
140 1 31.920497 31.816601 2.588578 0.01496441 0.00829554 -0.02421684 -0.00007256 -0.00003041 -0.00009593
141 1 13.914176 11.440767 24.287961 0.06573688 -0.01250890 0.02203507 -0.00005263 -0.00008536 -0.00012798
142 1 13.339688 9.361187 5.438983 -0.00423227 -0.01941724 -0.02249108 0.00070577 -0.00054615 0.00083438
143 1 18.163123 13.239983 19.168514 -0.00866211 -0.05507114 -0.01478005 0.00008509 0.00021058 0.00020333
144 1 2.411168 9.934101 2.461687 -0.00864272 0.02093977 0.05035728 -18.99137942 -8.22449241 -17.63871194
145 1 16.807776 19.025939 31.519408 0.07687074 -0.05261695 -0.01031516 338.93334173 191.29189080 -171.08687254
146 1 24.464501 24.831943 25.885866 -0.05374030 -0.05191396 0.00384689 2.01019011 0.65166720 -5.80409658
147 1 1.572084 10.419094 30.614176 -0.02694702 0.02568203 0.04098582 0.11386724 0.05099708 -0.42174069
148 1 27.007106 20.564370 10.628658 -0.00625224 -0.02665277 0.02312681 0.00016605 -0.00006284 -0.00015970
149 1 9.892448 5.324681 6.223526 0.00847379 -0.00845134 -0.03215372 2.96110514 0.74364185 1.43223266
150 1 29.650666 21.733551 5.222316 0.00293734 0.01095909 -0.01544025 -0.00003764 0.00021154 -0.00000962
151 1 18.591908 24.338192 2.317885 0.05426469 -0.02145698 0.02479309 -1182.55639811 1938.76877768 -972.70411254
152 1 18.618973 2.015406 21.455573 0.05897396 0.01835042 0.03410741 0.00006446 0.00004795 -0.00002458
153 1 28.939105 4.513222 16.758069 0.03312785 -0.06868211 0.01507426 -0.00006068 0.00003957 0.00000383
154 1 24.992897 23.127447 7.848358 0.00202915 -0.01776605 0.00801957 0.00026735 -0.00024755 -0.00012639
155 1 2.348859 26.738366 4.702690 -0.00432211 -0.00813153 0.03646072 0.00008016 -0.00002192 0.00002768
156 1 0.189469 30.087926 23.910609 -0.02029343 -0.00562064 0.03075773 81.04936687 -42.97710640 -34.70248194
157 1 19.600842 6.738360 12.009016 0.02733812 0.00399568 -0.03023160 -0.00003973 -0.00023291 -0.00040141
158 1 5.562145 7.205737 11.500310 -0.05562868 -0.02369665 -0.00096693 -0.00014950 -0.00012551 -0.00002833
159 1 10.961389 17.514264 11.607445 0.00316828 -0.01687455 -0.02700238 0.00050734 -0.00018545 0.00014648
160 1 16.107959 23.167445 19.157576 -0.00651282 -0.03545413 -0.01973237 738957.59904533 -2372139.68572016 3739028.43003860
161 1 21.312228 8.207262 8.571205 -0.00747104 -0.02332594 -0.02169768 -83377.87250464 3726.10422075 14010.76566348
162 1 20.478276 25.690500 7.455068 -0.00867084 0.01376103 0.00937193 0.00032551 0.00102232 0.00205352
163 1 12.556940 5.289435 28.360085 0.04180399 0.04361212 -0.04585667 0.00005933 -0.00022326 -0.00005542
164 1 30.253387 30.952407 31.831813 0.07973203 -0.01424773 -0.03430045 -0.00015924 -0.00005559 0.00002033
165 1 31.129136 23.446216 13.121937 -0.03155886 -0.02595575 0.03085757 -0.00002617 0.00005535 0.00001305
166 1 5.381614 2.950910 6.282021 0.04737492 0.03791622 -0.05434349 -0.00048311 -0.00038484 -0.00000485
167 1 30.922992 22.049017 31.099394 -0.04178789 -0.05682646 0.02664706 -0.00003179 -0.00002384 0.00007957
168 1 30.645429 25.934011 31.367939 -0.02074128 -0.01997474 0.02883247 -0.00012706 0.00011946 -0.00004884
169 1 30.551900 30.827080 24.826032 -0.01885847 0.03065090 0.04960353 -12.16650970 -10.47313824 -32.64767866
170 1 8.800297 10.630115 15.378003 -0.00690587 -0.07737310 -0.01562625 0.00004785 -0.00138445 -0.00175706
171 1 11.217231 6.176853 0.517717 -0.01433999 0.05319342 0.03485590 0.00071448 -0.00110950 0.00053764
172 1 30.253246 25.135470 21.922205 0.01660578 0.00663531 -0.00135389 -396.82962493 -817.25057293 -492.15973449
173 1 25.521559 32.014595 22.203075 0.08400297 -0.00357981 0.01907852 -0.00023786 0.00012782 -0.00009656
174 1 18.758468 19.140270 4.609234 0.02559076 0.01378677 -0.00368053 0.00031058 -0.00145725 0.00361295
175 1 23.919466 26.432630 5.770735 0.02498304 0.00279553 0.01531576 0.00061725 0.00011215 -0.00021665
176 1 26.335044 21.066443 30.046232 0.01427913 0.00639446 0.01119353 0.00012898 -0.00010556 0.00008331
177 1 5.538083 19.213932 29.370297 0.01461635 -0.02634403 0.00901617 0.00020080 0.00011008 0.00023601
178 1 4.843155 13.418238 14.986950 -0.03212656 -0.00741700 -0.02434074 231408679.41643879 51547116.00069711 283988549.66472471
179 1 7.646052 25.315332 29.554172 0.01371563 0.00976604 0.00586920 -0.00019918 -0.00019517 0.00001867
180 1 32.432392 27.808698 26.190254 -0.00921475 -0.00696243 -0.06359564 0.00095463 -0.00257847 0.00210327
181 1 6.585310 15.986972 26.466541 -0.01802561 0.00391731 -0.05444647 0.00038244 0.00012875 0.00004841
182 1 19.646821 7.931370 6.963556 0.00811756 0.00723484 0.05731947 0.33162511 0.05494233 0.32019919
183 1 15.539840 29.461560 2.995480 0.04580333 -0.00639571 0.03173794 -0.00008656 0.00009895 -0.00002165
184 1 6.871061 31.123824 12.736645 0.03891873 0.02272217 -0.02002301 -4037453.56516676 8305382.39907044 -2545609.36413572
185 1 32.484897 27.498813 28.608976 -0.03086647 -0.00179864 0.10438720 -20.87697603 10.75213698 -54.02588077
186 1 18.595951 12.279093 22.152633 0.01757450 -0.03051107 -0.01578645 -0.00023143 0.00010463 -0.00006429
187 1 3.249660 10.551477 14.571711 0.00436914 0.02483880 -0.04553893 -0.00096133 -0.00188450 -0.00029345
188 1 11.840153 29.844621 27.691817 -0.03025677 0.01387746 0.03580684 -0.00000834 0.00007015 0.00015798
189 1 3.966852 30.322685 31.685165 -0.00189361 0.00568573 -0.00621217 -90114.01772246 -19855.12157811 -265275.29036949
190 1 6.569238 8.416309 3.306703 -0.01824943 -0.04029763 0.00122376 0.00028268 -0.00097912 0.00063503
191 1 3.280665 11.585995 23.155601 0.01117049 0.03621744 -0.00240704 0.00007331 -0.00011101 -0.00007686
192 1 0.564463 21.438197 27.739995 0.04033190 0.00854766 0.03435819 -0.00042143 0.00094679 0.00077133
193 1 7.597391 16.488376 24.605961 0.04921554 0.01262844 0.04142963 0.00008982 -0.00009477 -0.00012031
194 1 0.042918 23.390624 7.379953 0.01279607 0.02960211 0.01796515 -0.00000178 -0.00012139 0.00013712
195 1 4.053692 8.914397 31.202582 0.00786579 -0.01022108 0.03837140 0.00082707 -0.00157993 0.00026706
196 1 3.699547 18.627221 31.380921 -0.01421225 -0.02461037 0.01958911 0.00000156 0.00005243 0.00010047
197 1 30.406967 3.677570 31.257390 -0.00627776 -0.02674075 0.02256610 -75426.06136368 -212227.17162699 -124535.13432350
198 1 13.254771 2.912273 23.059109 0.03211092 -0.01573339 -0.01271294 -0.00012573 0.00005273 -0.00015338
199 1 8.005722 18.627923 29.942866 -0.01456844 0.01180794 0.02842849 0.00000843 0.00004413 0.00006561
200 1 16.897834 1.764283 21.478303 0.02294980 0.00935520 0.00863623 0.00010537 0.00004654 0.00000469
201 1 6.088289 30.255377 28.961483 -0.03692989 -0.00492588 0.05123541 0.00163016 0.00008534 -0.00184761
202 1 11.656689 15.711787 18.262599 -0.00005929 -0.05693006 -0.04225881 0.00104442 0.00096955 -0.00001012
203 1 21.354504 5.279470 2.297513 0.02787226 0.05993803 0.04745850 -0.00026015 -0.00042009 0.00051207
204 1 10.268199 7.553128 20.292001 0.09553394 0.01596376 0.00388521 0.00011149 -0.00003234 0.00011023
205 1 15.596876 14.852481 28.079358 0.00539070 -0.00371020 -0.01348622 -0.00023331 -0.00008203 -0.00043122
206 1 27.270600 0.215670 26.795356 -0.07022894 -0.00624847 0.00055808 -0.00081457 0.00053612 0.00049994
207 1 7.092521 5.007529 1.157596 0.05629976 0.00532113 -0.00670449 -0.00025049 -0.00031015 -0.00009208
208 1 5.253642 21.723425 3.141060 -0.03319372 0.03957954 0.01132231 0.00000544 -0.00001448 0.00009017
209 1 7.571992 24.422947 10.792267 -0.06871240 -0.00724828 0.04452924 -0.00043383 -0.00031674 -0.00004261
210 1 9.991974 11.717395 10.843947 0.01129681 0.02167405 -0.05345660 0.00002070 0.00008658 -0.00001391
211 1 31.243248 9.855813 24.547950 -0.02896658 0.01950273 0.00169882 -0.00027483 0.00006707 -0.00017760
212 1 4.580281 22.726668 9.180137 -0.02222679 0.00544340 0.03355063 -0.00052297 0.00119235 -0.00017452
213 1 26.217705 3.770028 26.545792 0.01563739 -0.01811273 -0.02959193 -0.00018011 -0.00014733 -0.00012977
214 1 7.782607 4.235353 8.431487 -0.01165410 0.02207797 -0.02160776 -0.00092344 -0.00062651 0.00110947
215 1 13.372882 19.266530 19.982030 0.00161294 -0.04486157 0.01529874 -42875.57237758 124297.48411501 -120716.97002394
216 1 7.713777 1.722906 15.943508 -0.00929004 0.03561504 -0.02691099 0.00001296 0.00057965 0.00030608
217 1 8.671169 26.446816 11.968418 0.02254212 -0.02234215 -0.00895502 0.01347428 0.01031461 -0.01040234
218 1 9.774475 4.627523 16.946988 -0.00788728 0.02087461 0.05282607 -0.00018332 -0.00000229 -0.00001511
219 1 4.076414 6.125017 9.310458 0.05937261 -0.00937396 0.00979162 -0.00004704 -0.00000342 -0.00010374
220 1 4.377360 22.233887 31.426192 -0.01086490 0.03138566 -0.02493631 -0.00007320 -0.00015197 0.00008108
221 1 17.528191 8.774331 5.701957 -0.01741706 -0.01641709 -0.03470602 -0.00044251 0.00011748 -0.00033481
222 1 0.207976 22.720729 23.369957 0.02161620 0.00684034 -0.02358880 -296797.43784037 319999.04834434 3187.91902553
223 1 12.017234 23.066706 27.975007 -0.01956594 0.02735149 -0.02671347 -0.00011643 -0.00012495 -0.00010854
224 1 12.887222 21.750143 1.424193 0.03104787 0.03400903 -0.01832309 -20591.64004798 19133.15758581 1848.76419525
225 1 31.343238 32.195143 30.694019 -0.06529979 -0.00988948 0.01902672 0.00006664 -0.00096283 -0.00009656
226 1 5.625328 2.822321 16.651763 -0.03355939 0.02535848 0.01267577 -0.00009409 -0.00007874 0.00012167
227 1 4.468408 10.494516 14.137966 0.02225140 -0.00224935 -0.01165591 -3149781.35885595 -676122.61542740 1109306.52917871
228 1 22.338072 20.920899 5.053473 0.04461551 -0.03717683 -0.03028885 8.00066938 4.09933732 -3.98125771
229 1 30.684149 2.442487 9.872138 -0.03470471 0.02342469 -0.01593634 0.00011069 0.00003307 -0.00003831
230 1 20.360377 6.173807 11.846273 0.02361758 0.00384391 -0.00544217 -5.27355468 -0.97670074 3.18127126
231 1 4.613920 7.071528 0.992290 0.05357151 0.01151350 -0.02192819 0.00089802 -0.00142308 -0.00042581
232 1 24.978812 19.617525 31.906468 -0.05877231 -0.01462941 -0.03015843 -0.00000035 -0.00023851 -0.00017967
233 1 16.212484 16.251427 10.025815 -0.03456823 0.00599395 0.01873729 10.00878067 68.04489384 0.68277127
234 1 25.300378 5.141270 11.643349 0.00153099 -0.02138813 0.04712189 0.00058540 -0.00020696 -0.00001806
235 1 24.479141 12.129547 19.135493 -0.03176990 0.05059344 0.04140402 0.00005582 0.00007985 0.00010303
236 1 8.604435 2.396002 18.322134 0.00141016 0.00855030 -0.05254211 0.00012926 0.00014306 0.00010843
237 1 24.764650 7.202020 17.757925 -0.00871622 -0.03124684 0.00332786 0.00028590 -0.00012133 -0.00006978
238 1 27.977835 29.881541 3.239493 -0.02266387 0.01461731 0.02595832 0.00002018 -0.00004937 -0.00013448
239 1 22.721550 5.623180 4.573296 0.06829116 0.00615528 0.06140607 0.00001177 -0.00041269 -0.00009613
240 1 20.829665 25.209554 4.810256 -0.03344001 0.01379713 -0.00954497 -692.30980086 -885.71223758 -284.91379549
241 1 26.166653 24.325824 0.658042 0.02076251 0.00271202 0.04697349 0.00009081 0.00006902 -0.00014093
242 1 6.597938 31.685024 12.565583 0.04215925 -0.03432480 0.04225717 4041112.84725033 -8303464.49546634 2531017.98534979
243 1 21.013332 21.656376 11.619588 -0.04912830 0.04158226 0.00395740 0.00004346 -0.00010151 0.00022109
244 1 19.914336 18.070144 5.016065 0.01145527 -0.03567553 -0.04598649 -0.00051700 -0.00206728 0.00165151
245 1 3.043417 22.444161 18.561365 0.03073279 0.05774307 0.01154339 1.90358352 -4.19756626 -5.25483372
246 1 9.164900 14.203411 16.406696 0.00177742 0.00579868 0.00258767 -0.38443060 -1.36440255 1.49842435
247 1 11.039382 4.963349 16.453417 -0.01632418 0.02093537 -0.03169101 190.78325550 -215.70597414 140.12543019
248 1 31.195178 26.070265 28.538637 0.02140420 0.03564998 -0.04319927 4.22928713 4.68443404 0.23095684
249 1 16.137872 20.363101 32.490021 -0.02959796 0.01873370 -0.08929293 4287.82099719 7862.97560806 -2103.90187313
250 1 3.813185 19.610924 25.044431 0.02808651 0.03605679 -0.04258359 -0.04990484 -0.04148421 0.01886068
251 1 27.977171 4.338525 7.594165 -0.02814335 0.03823758 0.02287372 -0.00005001 -0.00009159 0.00007169
252 1 17.581678 17.290530 19.726748 0.00764564 -0.01744577 0.00739199 -903.81227322 -1780.58121980 361.54577556
253 1 15.830717 15.296954 12.722683 -0.04789726 -0.00123196 -0.01901711 0.00009821 0.00543926 -0.01169679
254 1 6.957429 10.589685 1.836046 -0.00260717 0.01445269 0.02476051 714.94725976 -1959.49387491 2714.78785595
255 1 29.714930 22.969780 21.732529 -0.01282763 -0.01494005 -0.01820119 -875993.88141237 49395.39948281 -344479.93029149
256 1 6.476286 23.245494 22.490576 -0.05234773 0.02566984 -0.01108920 0.00004528 -0.00008546 -0.00010572
257 1 5.753089 26.112833 9.298187 -0.01647562 0.02184975 0.01206450 -0.00018774 -0.00016733 -0.00022087
258 1 4.427769 4.790560 27.155438 0.00997590 0.00330256 0.01001298 411.00014408 407.83041081 367.24241180
259 1 7.895973 5.046815 26.822077 -0.03831845 -0.02726898 0.03905442 0.00238848 0.00027529 -0.00025538
260 1 31.240566 18.987554 0.263742 0.06079603 0.03683465 0.01108044 0.00016189 0.00092374 -0.00076745
261 1 12.387132 13.803319 20.411582 -0.04376188 -0.01839672 -0.04290663 0.00062691 0.00018817 0.00031239
262 1 5.871352 23.051112 23.061956 -0.01278248 0.04592545 0.00753464 0.00015528 0.00005088 0.00016740
263 1 18.822401 5.091366 23.212745 0.02142373 0.00058404 0.00223672 0.00001181 -0.00014551 -0.00000464
264 1 27.769727 23.686147 5.361858 -0.03061822 -0.02668920 -0.06893817 0.00010249 0.00008624 -0.00007179
265 1 5.551624 32.253623 19.325002 -0.02285651 -0.02553477 0.02560046 1005.90801285 -2988.87002080 -1192.18012660
266 1 0.191045 29.826887 5.964933 -0.01520149 -0.00310242 -0.01015006 0.00007377 -0.00015914 0.00000523
267 1 20.739398 8.899239 19.640224 -0.02055867 0.03028232 0.00298733 0.00054786 -0.00016808 0.00226037
268 1 19.707805 17.962146 22.969481 0.02821864 -0.00122287 -0.00272239 -1702469.47718470 -429699.71010844 1393455.97491251
269 1 14.696279 25.276944 19.958695 0.01548768 -0.00707167 -0.01143701 0.25368275 0.13330311 0.26897441
270 1 14.637521 26.965070 11.581918 -0.01186434 0.01880433 -0.01868572 -0.30726434 2.96105181 2.18246284
271 1 13.343859 20.878054 8.349762 -0.04365257 -0.00602198 0.03562389 -0.00006533 0.00005411 -0.00005281
272 1 25.026378 20.151930 30.406921 0.00605311 0.03956784 0.02425907 0.00000585 -0.00008388 -0.00015305
273 1 20.284242 3.295219 17.615455 -0.05532218 -0.01472106 0.00107689 -0.00013847 -0.00027704 0.00015612
274 1 22.949433 4.777418 2.855381 0.01957324 0.00497600 0.00910764 175.74236607 -1038.35623527 66.36308320
275 1 30.420337 8.284752 3.477756 -0.03429493 0.00529720 0.00766599 -0.00035883 -0.00021509 0.00006920
276 1 18.065230 8.663314 1.626634 0.06449871 0.01664362 -0.01755352 -0.00019402 0.00019775 -0.00000217
277 1 4.172596 6.296156 13.313846 0.03573797 0.03851837 -0.04580804 -0.00004963 -0.00102827 -0.00011546
278 1 31.868633 23.931971 0.989313 0.00064834 0.03797217 -0.04027013 0.00002296 -0.00000371 0.00012491
279 1 17.876878 5.314968 18.580206 0.00618146 0.04109604 0.01716782 -0.00011059 -0.00033454 0.00000956
280 1 21.970651 18.647981 26.214879 -0.03829226 -0.00745898 -0.00638339 0.00076228 0.00019237 0.00116361
281 1 4.213631 16.581534 14.204503 -0.00273902 0.02555977 0.00639566 -0.00033603 0.00188181 -0.00097731
282 1 9.841091 3.465060 3.452263 -0.04269370 0.02623464 -0.02117712 0.00001106 -0.00136356 -0.00202721
283 1 1.761758 18.521643 21.929314 -0.09314407 0.00194051 -0.00815818 -0.00024386 0.00014083 -0.00094253