ITEM: TIMESTEP
0
ITEM: NUMBER OF ATOMS
3692
ITEM: BOX BOUNDS pp pp pp
0.0 37.339213
0.0 37.339213
0.0 37.339213
ITEM: ATOMS id type x y z vx vy vz fx fy fz
1 1 4.014081 12.998657 25.387741 -0.01344079 0.01297485 0.00816195 0.00008818 -0.00008605 0.00004581
2 1 34.503020 0.181226 33.872219 -0.03533249 -0.00436069 0.00843746 0.00005745 0.00006220 -0.00009618
3 1 34.341150 7.604928 17.893868 -0.00272253 0.05007740 -0.06162249 -2.75147535 -1.43619350 -1.07067299
4 1 33.582102 31.874824 10.992911 0.00116189 -0.02808732 -0.05596382 -0.00004206 -0.00011083 -0.00007402
5 1 36.355740 35.402617 12.085991 0.02062948 -0.01254191 0.02605191 16224.33588713 -26700.31477593 -16464.46238207
6 1 21.156340 5.029817 7.850726 0.01120923 0.02132523 0.07014660 0.00000851 0.00002267 0.00000402
7 1 19.996777 3.037373 23.754328 -0.03961095 0.01355830 -0.02723294 -0.00002112 -0.00001132 0.00011830
8 1 33.528399 21.207936 7.796811 -0.01383548 0.00444916 0.01079484 -0.00015849 0.00003433 -0.00007388
9 1 33.834063 35.512155 25.684873 0.04448997 0.01981691 0.00931689 -0.00000893 0.00006266 0.00014309
10 1 7.676157 21.530556 34.162991 -0.02642096 -0.05085578 -0.00980935 0.00005002 0.00005407 -0.00007901
11 1 36.262112 19.947171 4.057515 0.01729101 -0.05928688 0.00603434 0.00016518 -0.00011328 0.00001912
12 1 32.549119 33.539844 3.738841 -0.02433566 -0.02020990 0.02277123 -0.00016080 0.00002059 -0.00002851
13 1 23.740373 26.805503 36.537999 0.00794932 0.01904815 -0.01964312 -0.00008698 0.00009889 -0.00007455
14 1 22.652973 35.519604 34.410819 0.00372467 -0.01337735 0.07257151 0.00006582 0.00010397 0.00005756
15 1 28.166242 22.889769 7.383679 -0.01832939 -0.00122408 0.00736158 0.00000906 -0.00000789 0.00003469
16 1 27.767345 36.013807 29.831643 -0.01233586 -0.02686150 0.00350641 196.15466187 -256.86210816 -201.63755765
17 1 18.191610 13.807453 20.955620 -0.00954709 0.00294317 -0.02155243 -0.00004221 0.00014107 0.00003053
18 1 23.408838 32.730443 14.346476 -0.00692890 0.10516394 0.01006759 -0.00002500 0.00003149 -0.00000443
19 1 13.796190 15.854760 18.834390 -0.02406250 0.00315312 -0.00697831 -0.00004820 -0.00009866 -0.00002337
20 1 18.122558 27.600533 22.999718 -0.01288728 0.00671265 0.00873609 0.00004028 -0.00010784 0.00002686
21 1 11.663163 34.409652 35.491862 -0.01648398 -0.04061817 -0.04514957 -0.00005856 0.00013807 0.00007526
22 1 25.457894 27.939752 10.654665 0.02415874 -0.03736355 0.03238978 0.00009405 0.00009850 -0.00004619
23 1 35.505230 35.597553 2.043345 0.00901921 -0.00628263 0.00699303 0.00021434 -0.00005967 -0.00005053
24 1 25.774168 23.600832 8.194411 0.10084421 0.02452807 -0.01652658 -0.00008735 0.00006959 -0.00014243
25 1 23.834703 25.718895 23.304795 -0.02945264 0.05834695 0.03926643 -0.00009104 0.00004296 0.00002150
26 1 31.019972 23.070976 13.005082 0.03878995 -0.02681394 0.01743156 0.00011649 0.00000989 -0.00004494
27 1 30.106532 3.011431 15.095223 -0.02769159 0.02306297 0.01038351 -0.00006784 0.00005583 0.00010268
28 1 28.386765 16.784918 12.081159 0.02756631 -0.01619274 0.03459711 99817.80813658 -305020.50298119 1241443.25832653
29 1 23.639421 31.503183 6.454167 -0.02027582 0.02757348 0.06382975 -0.00013190 -0.00003716 -0.00010185
30 1 33.511238 9.886383 30.363019 -0.00626168 -0.00562755 -0.02863245 -45.45415374 -24.65984242 -39.28453200
31 1 1.574407 18.480153 28.148299 0.03361562 -0.01947037 0.02663958 -0.00002482 0.00012365 0.00020946
32 1 1.868006 20.954773 20.692124 -0.01109492 0.00104947 -0.01258351 -0.00007422 0.00000042 0.00005009
33 1 5.375312 18.413790 29.697513 0.04432531 -0.04078109 -0.01711741 -0.00009746 -0.00009696 0.00011062
34 1 8.664136 22.446997 29.797613 0.01174974 -0.01361896 -0.00541279 -0.00004804 -0.00011456 -0.00000885
35 1 13.141019 35.819455 32.101746 0.00482721 0.01793262 0.08225127 0.00000481 0.00001117 0.00010731
36 1 3.086305 13.703773 9.098240 0.05480828 0.06469945 -0.02698374 310214.89437820 126431.37315085 919043.60829793
37 1 24.292490 20.339770 36.725068 0.02931596 0.04006228 0.02012398 0.00006118 0.00010013 -0.00008382
38 1 36.722064 10.356571 7.766061 0.02671963 -0.00476672 -0.00509378 -0.00042444 -0.00018307 0.00002353
39 1 30.895317 8.977828 30.284264 -0.01583693 -0.01652161 -0.00004039 0.02957900 0.01029609 0.00085438
40 1 30.971082 28.127850 22.848077 -0.04969593 0.02980391 0.01698793 0.00018768 0.00004470 0.00004122
41 1 6.820354 31.290221 12.948226 0.01161437 -0.03955512 -0.01119554 0.00011295 0.00002244 -0.00011990
42 1 11.867318 35.871642 3.947449 0.01637185 -0.05533016 -0.00114392 0.00001250 0.00015632 -0.00010437
43 1 33.228208 5.587060 28.214384 0.01296154 0.01494921 0.02078854 -0.00002420 -0.00036861 -0.00031009
44 1 27.496458 25.520616 7.393759 -0.02467890 -0.01463692 0.00486212 -5397.96024728 5360.81757838 7046.15928152
45 1 3.005915 31.090449 19.546888 -0.03883997 -0.02719138 0.02190250 0.00004814 -0.00002236 -0.00005126
46 1 11.519955 21.706467 10.580957 -0.01635302 -0.04935643 -0.03995540 0.00008069 -0.00010429 0.00007114
47 1 17.110040 7.455083 29.769451 0.02520250 0.00682016 -0.00250265 0.00005454 -0.00003058 0.00006254
48 1 11.515077 11.222413 25.005068 0.05850282 0.00714767 0.03947866 0.00011125 0.00003134 -0.00009429
49 1 19.899260 10.830224 22.940442 -0.07698247 0.02543274 0.08224911 0.00002346 -0.00004051 -0.00027386
50 1 25.997106 18.473199 11.215558 -0.00264842 0.00607342 -0.00380449 0.00198331 -0.00159851 0.00081386
51 1 4.455118 24.475727 9.472010 -0.01289053 -0.01136302 0.00343540 0.00005846 -0.00000645 -0.00006439
52 1 1.678618 4.338519 14.160846 0.01485319 -0.03011790 -0.04381035 0.00006509 -0.00009296 0.00005257
53 1 31.482432 6.829214 0.528631 0.03390260 0.00161074 0.00824499 0.00015164 0.00010273 -0.00023767
54 1 0.831633 13.870511 17.350818 0.06440158 -0.01825693 0.01712825 0.00020947 -0.00004810 0.00004374
55 1 9.024757 32.180696 19.817053 0.02480566 0.00146062 0.04756794 0.00003645 -0.00008607 0.00000787
56 1 31.782730 37.330396 19.181737 -0.05741351 -0.03101255 -0.01042853 0.00010393 -0.00014052 -0.00011744
57 1 35.264319 14.982511 34.782088 0.02264917 0.02219005 -0.02259249 -0.00001428 0.00007895 0.00009344
58 1 28.817719 5.922939 13.533418 0.03297952 0.04241898 -0.01390814 80047.91870554 -955884.51829728 -897987.95231802
59 1 33.372521 22.146599 5.625059 0.01936618 0.00266125 0.01965169 0.00019096 -0.00014577 0.00005750
60 1 35.765778 11.999654 29.451821 -0.02254723 -0.00960003 -0.00380579 0.00107319 0.00096863 -0.00034884
61 1 15.421212 17.732823 5.715286 0.01770268 0.00709698 -0.00689238 0.00010599 -0.00001853 -0.00009736
62 1 5.257229 4.709646 9.618045 -0.02789532 -0.01672756 -0.00778169 -0.00001430 0.00001380 0.00003067
63 1 15.631929 29.121657 21.564204 -0.01089298 -0.00035823 0.00540460 -0.00028351 0.00004426 0.00032192
64 1 7.262039 0.846624 5.417308 0.01550478 -0.00982418 -0.00367555 -0.00000655 -0.00011240 -0.00001835
65 1 35.779578 30.354308 29.015871 0.02921319 0.00766676 0.01997173 0.00011334 -0.00014405 0.00013917
66 1 9.968029 11.795395 35.873581 0.01501459 -0.01862649 0.00220701 0.00001947 0.00013501 0.00001650
67 1 16.896141 32.891469 12.474569 -0.03588908 0.05662280 0.02662835 -0.00006145 -0.00003336 -0.00008992
68 1 13.638429 34.141203 21.247704 0.02822428 -0.05760625 0.01241037 5378.44857390 -7859.89881068 730.93141788
69 1 23.555738 20.117402 15.134723 -0.00518334 -0.00125033 -0.07455410 -0.00008470 -0.00001165 -0.00000994
70 1 30.863642 4.854419 24.233183 -0.00205302 -0.02724642 0.01586323 -0.00006558 0.00001585 0.00000855
71 1 8.230332 3.504180 0.374783 0.00476813 0.03344799 -0.04714232 0.00006145 0.00007275 -0.00007463
72 1 26.247503 6.627093 24.813915 0.01204739 0.01691328 -0.00611657 -0.00012805 0.00007113 0.00015615
73 1 20.610311 25.869547 15.684464 -0.00675238 0.01635743 -0.01251317 0.00006780 -0.00009089 -0.00007708
74 1 26.632366 35.226661 25.394128 0.00707407 0.01210452 0.03675893 -0.00010293 -0.00005121 -0.00062933
75 1 32.042912 27.531524 12.223512 -0.04741390 -0.00120988 -0.03562277 0.00006572 -0.00000051 0.00010070
76 1 34.600805 18.422483 4.349087 -0.01071816 0.00822293 0.02249870 0.00010789 -0.00003345 -0.00011856
77 1 25.472087 33.373951 1.793659 0.07559613 0.01536974 0.01024138 -0.00007835 0.00005841 -0.00010453
78 1 23.024582 10.949277 21.218359 -0.02778035 -0.00058722 0.02058065 0.00001234 -0.00009454 -0.00007505
79 1 7.092456 34.695024 2.064320 -0.01117384 -0.01611349 -0.01220921 -0.00023430 0.00004402 0.00006753
80 1 21.024140 21.083307 0.857730 0.03842318 0.03700573 0.00521442 -0.00007480 0.00007970 -0.00008336
81 1 9.712974 11.892876 11.210231 0.04902943 -0.01024084 -0.05758987 1237.02493101 -3135.25239787 -3067.22041093
82 1 11.611655 30.377234 2.354351 0.01101910 -0.01814400 0.06597957 -0.00000928 -0.00024803 -0.00002628
83 1 19.103257 28.419156 20.601435 -0.00278199 -0.01148255 -0.02853815 -0.00014892 0.00003134 0.00009346
84 1 18.917064 19.535556 35.769177 -0.00305470 -0.01575553 0.01558111 -0.00002899 -0.00017288 0.00007875
85 1 19.479676 37.082466 6.733879 0.03628518 -0.08479926 0.00861579 -0.00015474 0.00016807 0.00006193
86 1 28.631888 17.344104 37.030866 -0.03060801 -0.02534960 -0.00647016 -115.98136115 139.23770806 -52.05140600
87 1 5.162545 36.718411 34.591139 -0.01196944 -0.00189888 -0.05956644 0.00009525 0.00015017 -0.00005227
88 1 19.620629 13.791221 13.495822 -0.00236532 -0.02109261 0.02892168 -0.00012229 0.00006199 -0.00008571
89 1 15.287517 15.497303 13.698169 -0.05028479 0.00032165 -0.00346999 0.00003683 0.00000967 -0.00014159
90 1 32.443574 30.599843 31.767875 0.01175030 0.01119538 0.04307397 0.00000228 -0.00005274 -0.00014919
91 1 11.398549 8.036597 20.542961 -0.03775171 0.00875135 0.03437455 0.00009042 0.00014536 0.00004795
92 1 25.194424 22.914971 0.429913 -0.02254019 0.01480649 -0.00503240 -0.00008534 0.00011487 0.00004377
93 1 25.135133 4.834284 37.059205 0.03217489 -0.01972116 -0.01067405 -0.00013940 -0.00008079 0.00006592
94 1 28.517434 29.500063 24.007665 0.00090909 0.00428985 -0.00507608 0.00002765 -0.00008346 0.00009075
95 1 17.466838 30.811331 10.855525 -0.04154243 0.05208138 -0.08768246 0.00001489 -0.00005699 -0.00002235
96 1 21.343790 17.367399 7.394115 -0.03834406 0.00931495 0.01541455 -0.00010419 0.00005956 0.00013753
97 1 16.563993 22.257149 11.971951 0.01252604 -0.07107683 -0.02168133 -0.00007344 -0.00006901 0.00005443
98 1 32.655269 14.360928 32.548428 -0.07783961 -0.02083142 -0.04889051 -0.00006585 0.00022839 0.00003089
99 1 16.389514 13.191103 6.138227 0.03602469 0.03798596 -0.04861673 0.00001052 0.00008607 0.00007227
100 1 20.100741 19.506802 13.134039 -0.07425859 -0.00823902 -0.05021950 0.00001569 -0.00006228 0.00009455
101 1 30.774039 32.162649 12.455158 -0.01271202 0.02055580 -0.02113906 -0.00020710 -0.00011967 -0.00023195
102 1 15.809171 27.000621 4.476567 -0.00681756 0.02526862 0.02668277 -0.00005315 0.00018567 0.00006791
103 1 10.486928 35.487411 31.817575 -0.03623111 0.01682938 0.00635831 -0.00004877 -0.00003157 -0.00000919
104 1 30.121858 30.995231 3.315794 -0.00853197 -0.03700254 0.04667027 0.00009987 0.00019018 -0.00007926
105 1 13.147878 27.451015 8.878122 -0.00489572 -0.00918937 -0.04606848 0.00004200 -0.00001667 -0.00002050
106 1 25.530747 17.885203 23.937589 0.00636180 0.01838920 -0.01864629 -0.00004617 0.00007014 -0.00006672
107 1 37.179267 25.810591 18.636302 -0.02793566 0.00469218 -0.01383798 -0.00013001 0.00002391 -0.00000634
108 1 5.192183 32.659872 34.048281 0.04235811 0.02007065 -0.03782790 0.00011727 0.00018019 0.00006790
109 1 27.694960 36.847179 22.439104 0.05992265 -0.04770132 -0.05531544 -20173968.69658029 5809836.93243167 -18715576.31707282
110 1 28.360191 17.334171 22.277972 0.02750363 0.00605556 0.01632254 0.00002128 0.00006997 0.00012386
111 1 32.797630 4.713227 20.842311 -0.01825142 -0.00456451 -0.03389596 -0.00024902 -0.00050050 0.00057380
112 1 34.181665 17.028300 33.460752 -0.04956710 0.01477079 -0.03685061 -0.00005077 0.00007311 -0.00001453
113 1 9.969307 13.678476 27.048928 -0.03769252 0.01146739 0.01087268 -0.00016620 -0.00005306 -0.00005452
114 1 2.247812 0.323926 35.699519 0.03601359 0.02685418 0.01536173 -0.00014428 -0.00028034 0.00010909
115 1 24.252929 20.343372 3.540050 -0.03685732 -0.00066104 -0.04862794 -0.00015840 -0.00004570 0.00010850
116 1 23.827243 15.121598 13.438747 -0.03248020 0.02001659 0.03928656 -0.00047876 0.00011518 0.00004346
117 1 3.289900 10.187005 33.819301 0.00198216 0.04686737 -0.00463387 0.00011167 0.00012933 0.00007179
118 1 26.103094 9.264953 15.526375 -0.05958053 0.03465452 -0.05058660 -0.00012170 0.00029616 0.00033089
119 1 15.868857 5.008945 30.099818 -0.00267333 -0.01766579 0.00040091 0.00013208 -0.00010754 -0.00010641
120 1 13.885106 22.401058 11.675076 0.03846656 0.00876476 -0.01934229 -0.00001266 0.00002883 -0.00007024
121 1 35.976435 28.284843 2.688581 0.03801954 -0.00640832 0.03002898 0.00004586 0.00005488 0.00008984
122 1 10.878167 36.957994 9.676060 -0.05186298 0.00801050 0.00622623 -0.00008287 -0.00015857 0.00005083
123 1 10.140038 9.019312 10.206344 -0.04815264 0.02647714 -0.01166866 -0.00026164 0.00176291 0.00051960
124 1 30.554697 33.478900 26.670628 -0.01747057 -0.00216857 -0.03368809 0.00027403 -0.00044233 -0.00015091
125 1 12.495265 29.399843 7.845282 0.01305881 0.01534946 -0.00362181 3697.65627490 -6080.30973645 -1686.92458437
126 1 8.095548 0.602708 11.438662 0.00131344 -0.03112204 0.04840886 0.00004451 -0.00020164 -0.00008022
127 1 24.619704 35.858627 25.407065 0.04698937 -0.07436180 -0.01928036 -0.00056539 -0.00016349 0.00023937
128 1 34.376741 11.168059 11.586798 -0.02949443 0.00508252 -0.02844677 0.83306903 4.24487954 9.56780546
129 1 11.765510 11.623454 34.906192 0.00338575 -0.04583675 0.00991967 0.00005476 -0.00004078 0.00009672
130 1 5.296539 26.557011 10.026744 -0.04132477 0.02512263 0.02963882 0.00004670 0.00001842 0.00013998
131 1 2.774935 28.346491 31.296558 0.02921009 -0.00005703 -0.05087206 -0.00003842 0.00004215 0.00004050
132 1 0.559693 19.631322 21.498863 -0.03372070 0.02448117 0.03241117 -0.00001938 0.00015714 0.00016381
133 1 21.672836 11.415173 0.830168 -0.01268069 0.03255132 -0.06765787 1422.96110998 -1068.40745678 683.92832943
134 1 31.299182 16.972452 22.565674 -0.01862153 0.07660136 0.00789517 0.00011109 -0.00013631 -0.00004606
135 1 15.029787 4.278482 14.141348 -0.00992787 -0.01616485 -0.01306853 0.00001373 0.00008634 0.00003599
136 1 11.975882 6.167027 37.283983 0.00523960 0.01367110 -0.00251018 0.00001554 0.00002592 -0.00011639
137 1 11.879421 4.201760 13.963004 -0.02952383 0.07656502 0.03068503 0.00007034 0.00022927 -0.00014045
138 1 29.008321 28.764310 27.332704 0.01555289 0.00343137 0.02227190 0.00016931 -0.00016793 0.00013228
139 1 3.962601 11.436195 2.708217 0.00131957 0.05954226 0.02285571 -25.18920460 1.95924092 -310.71423661
140 1 34.215770 13.313097 27.950795 -0.01473823 -0.00383227 -0.00152148 0.00012501 0.00096985 -0.00078787
141 1 2.810490 28.709351 20.774564 -0.03671313 -0.01753578 0.00155518 0.00009111 0.00020769 0.00003069
142 1 28.112676 25.658741 28.826309 0.00061804 0.05626646 -0.03555891 -12656.95597997 9683.45488559 -11964.32797922
143 1 26.409275 28.280474 5.729623 0.01771529 0.04946368 0.00790401 -0.00071721 0.00215953 -0.00127986
144 1 1.261049 24.468663 8.080332 0.02742010 -0.01318962 0.00308357 -0.00010832 0.00011941 -0.00002377
145 1 27.386498 11.643428 3.546876 0.04167702 -0.01541652 -0.03527227 0.00012459 0.00006831 0.00004243
146 1 30.459980 31.946787 23.539632 -0.01919005 0.02253550 -0.05276765 0.00021908 -0.00010893 -0.00015985
147 1 0.249583 12.724065 36.479621 0.02778405 -0.03121641 -0.01687068 -0.00017171 -0.00000438 -0.00018872
148 1 34.552791 5.889053 0.260592 -0.00516203 0.00700237 0.01339543 -2.08260577 -0.17894224 1.44029432
149 1 25.970271 29.799426 2.161469 -0.09206836 0.01829292 -0.00116764 -0.00012723 -0.00007870 -0.00015247
150 1 32.918238 30.759863 0.012384 -0.01763404 0.03357510 0.00339363 0.00003124 -0.00001500 -0.00003109
151 1 11.482440 1.319513 12.553626 -0.00300504 0.01089633 0.03558980 -0.00001704 0.00006011 -0.00005623
152 1 26.640086 27.888470 36.003463 0.06224953 0.02616179 0.02659208 0.00009247 0.00009219 -0.00005546
153 1 5.324597 4.570511 1.613877 0.09423289 0.06301085 -0.01385042 0.00008344 0.00000861 0.00010062
154 1 13.858395 10.231817 22.947145 0.01640406 0.00518211 -0.01197411 -0.00010962 0.00009442 -0.00008255
155 1 31.073428 19.705082 22.470006 -0.01279187 -0.02947604 -0.00903883 -0.00000966 -0.00001599 -0.00000178
156 1 21.960678 5.166691 4.725917 0.05826329 -0.04677754 -0.08653237 5.28349196 -1.95529956 0.72767167
157 1 22.028740 28.893840 11.468462 0.02061402 -0.07956057 -0.02299416 0.00015983 -0.00004603 -0.00004213
158 1 4.952656 19.738104 35.786893 -0.02785449 -0.00819796 0.02743259 0.00008029 0.00003056 -0.00005791
159 1 2.518723 0.405414 16.854354 -0.03264619 0.00356017 0.01322754 -0.00012545 0.00004084 0.00002838
160 1 32.584681 15.512850 26.406965 0.00973984 0.01580646 -0.03601704 -0.00009183 -0.00001106 -0.00010297
161 1 28.711798 29.201033 28.902853 0.00416710 -0.02258416 -0.02900919 0.00039903 0.00247489 -0.00005648
162 1 1.890288 20.113201 6.894868 0.06028984 -0.00715599 0.03394836 -0.00009156 0.00018819 0.00016660
163 1 34.201682 33.574932 4.477420 -0.04241718 0.06088596 -0.00449953 -0.00013387 0.00006158 0.00017457
164 1 31.081496 37.184088 6.158098 -0.01765996 0.01470233 0.04174860 -554.31276971 319.59008892 -742.31168338
165 1 11.761658 3.963128 6.183122 0.02682762 0.00595503 0.00396790 -0.00001358 0.00005347 -0.00006537
166 1 36.715127 1.576407 2.328557 -0.01903582 -0.00871768 -0.02539730 0.00009606 -0.00032739 0.00018833
167 1 12.793033 29.297950 23.292152 -0.04248105 0.03149350 0.01624019 -0.00020259 -0.00037958 0.00004367
168 1 23.591985 23.556344 30.075497 0.00797552 -0.04000790 -0.06543671 -0.00019574 -0.00025914 -0.00006375
169 1 14.315807 1.530353 36.614616 0.02974972 0.02988925 -0.00350492 -0.00001118 -0.00004532 -0.00010876
170 1 12.307587 13.789610 4.613025 0.03380508 -0.02820976 -0.01745128 -0.00002535 -0.00021268 0.00004145
171 1 1.488448 29.430982 31.232487 0.03789182 -0.00451565 -0.00490444 -127828.19260583 -184234.84760808 363121.69641996
172 1 4.652933 25.722696 6.707087 -0.03802478 -0.00349659 0.04111236 -0.00009955 0.00015143 -0.00006514
173 1 15.317259 20.876372 30.798281 -0.02706668 -0.02056514 -0.01058614 0.00000117 0.00008417 -0.00022103
174 1 23.470378 4.621765 28.308328 -0.04529063 -0.03722754 -0.02158842 0.00005849 -0.00001456 -0.00005271
175 1 27.489405 8.269825 28.877560 -0.01092646 -0.06309602 -0.00376473 -0.00007221 -0.00002945 -0.00008339
176 1 34.194597 30.902517 17.851486 0.01644345 -0.03792700 -0.00251670 -0.00004129 0.00016546 0.00002959
177 1 13.489016 17.666066 17.273396 -0.02809818 -0.04732300 -0.01250993 0.00003634 -0.00000703 0.00004462
178 1 2.240855 13.250130 31.894696 -0.06277371 -0.02920237 0.06999208 127966.19190204 -67567.19350942 113489.47320336
179 1 28.870930 19.542777 22.984643 -0.04818183 0.07151828 0.01488554 -0.00010020 0.00020214 -0.00001059
180 1 6.137044 22.340479 14.276475 0.00471060 0.01393109 0.05569489 -0.00011767 -0.00015120 0.00006887
181 1 2.361530 19.014833 34.319922 -0.02449280 -0.04513122 -0.01648845 -0.00011877 0.00016072 0.00005091
182 1 0.949110 34.985862 35.626862 -0.02096926 0.05320531 -0.00141638 -0.00009562 0.00000238 0.00018451
183 1 19.012911 2.253279 32.630814 -0.01171274 -0.01307678 -0.02453957 -0.00000301 0.00011600 -0.00013616
184 1 23.324507 26.249462 19.702997 0.00873974 -0.01951117 0.05735986 0.00008323 0.00001647 -0.00003758
185 1 10.747020 11.658244 10.130642 0.00758378 0.01681723 0.03003515 -103.45476780 23.47457734 108.01115818
186 1 30.447636 18.276619 35.703553 -0.02379081 0.02973908 0.06410554 1105.72069942 -4998.25685905 -1414.88847971
187 1 34.537647 24.454261 25.500502 0.03480601 -0.02461733 0.02532072 -1283.46579081 -1217.61943664 -6042.35599047
188 1 21.273230 18.284271 2.616357 0.02310824 -0.03145429 0.04305329 -0.00001469 0.00010985 0.00013934
189 1 34.108763 16.946857 10.816632 0.01107313 0.04221055 0.00133158 0.00023734 0.00017790 0.00003017
190 1 22.284689 2.035006 3.347486 -0.04377565 0.01575407 -0.01049064 0.00043436 -0.00238748 -0.00098824
191 1 11.811029 14.549052 7.735983 0.04272616 0.00614325 0.02954174 0.00023818 0.00029307 -0.00053619
192 1 9.888903 36.985467 12.376749 -0.03404691 0.03706914 0.03372911 0.00009860 0.00006664 -0.00000176
193 1 13.001975 3.127763 29.265076 -0.03539497 0.08066073 -0.03031418 0.00010872 -0.00006731 0.00009265
194 1 29.416440 21.262291 27.116857 0.05423906 -0.00915309 0.00490339 0.00002685 -0.00058464 -0.00011713
195 1 35.047508 21.712840 32.022373 0.01641028 0.00229604 0.00214028 -17.40602452 -21.45144105 -5.51353347
196 1 28.521495 0.270256 14.477897 0.00855699 -0.00249977 0.01183734 0.00012041 -0.00019511 -0.00001446
197 1 6.437980 18.762657 25.054567 -0.01773656 -0.03687408 0.04955631 -0.00005916 0.00003974 0.00004381
198 1 17.147859 35.890435 0.029159 -0.01803441 0.02167308 -0.05193816 0.00010868 -0.00010077 -0.00001236
199 1 11.105156 17.543396 26.351060 0.07081072 -0.00799593 -0.00362832 0.00015673 0.00000964 0.00002914
200 1 0.410880 6.086389 8.912463 0.05329780 0.02279535 0.00131376 0.00001901 -0.00013730 -0.00001465
201 1 7.548212 26.523644 29.030685 -0.02735345 0.04174953 0.00176261 0.00000698 -0.00006683 -0.00004761
202 1 31.468219 26.092477 0.580289 0.01161069 0.02961624 0.00884100 0.00007675 0.00015129 -0.00002015
203 1 4.449557 20.259512 7.776677 -0.00569676 -0.02061065 0.06733281 0.00000118 0.00002340 -0.00000546
204 1 24.161708 20.806063 7.083033 -0.01672781 -0.01467369 0.02722102 -0.00015394 -0.00015137 -0.00007307
205 1 2.635100 29.596182 34.701446 0.01391328 0.03507313 -0.07559547 0.00085671 -0.00000334 0.00230664
206 1 14.800011 25.529327 31.410221 0.02437196 0.04377986 -0.07412114 0.00000757 0.00004362 0.00008423
207 1 36.937959 3.009776 17.796610 -0.05347584 -0.02108290 0.00348144 0.00022009 -0.00026824 0.00005325
208 1 31.906016 20.269692 22.231112 0.01214107 -0.04361514 -0.03823537 -0.00028315 -0.00015162 -0.00000660
209 1 8.771707 13.450021 36.970063 0.02952417 -0.03773380 -0.01756004 0.00022742 0.00000711 -0.00008392
210 1 26.668648 30.048719 29.393754 -0.04557336 -0.00365814 0.03679161 -0.00037965 0.00067126 0.00012847
211 1 2.196393 18.908338 7.571445 -0.02185172 -0.04086669 0.05435285 -80326.71549513 27960.23381588 -23802.13465955
212 1 12.230059 28.117708 0.044605 0.00805828 -0.02701826 -0.04928958 -0.00003975 0.00021786 0.00003315
213 1 22.836569 19.255425 23.432100 -0.01055157 -0.01745166 0.00068973 -0.00013724 -0.00012214 -0.00002210
214 1 17.381146 33.407958 2.841341 0.00745795 0.04784289 -0.01422280 0.00010082 0.00006658 0.00003298
215 1 25.639350 16.519136 31.316766 0.03019605 -0.00741922 -0.00894325 -0.00018126 -0.00010129 -0.00000218
216 1 18.252135 11.573018 19.317054 0.00892633 0.02879476 -0.03632218 0.00016332 0.00002119 0.00002786
217 1 23.520080 3.107860 25.824660 -0.02693957 -0.01119773 0.00832452 -0.00002938 0.00034319 0.00028574
218 1 32.090472 14.286599 34.615205 0.00158162 0.03676385 0.00361073 0.00048487 -0.00094439 -0.00020951
219 1 13.232133 31.163999 6.147463 0.04592276 0.06665167 0.02861583 -0.03434747 -0.08218617 0.07904914
220 1 1.478472 18.210924 27.108484 -0.00408631 -0.01167695 -0.02920785 0.00003617 -0.00008934 -0.00004021
221 1 18.868247 28.216820 25.754161 0.02809918 0.01194739 0.00271594 0.00010860 -0.00003258 -0.00000455
222 1 12.470900 9.473137 0.013135 -0.04873566 -0.02719225 0.00788171 -0.00003299 -0.00004004 -0.00004792
223 1 6.219511 4.957245 5.513616 -0.01043772 -0.05696802 -0.00511736 0.80221166 -1.18105742 -9.12187980
224 1 27.832341 14.735615 8.223627 0.08502414 -0.00490785 -0.03931757 -0.00015399 -0.00053369 -0.00076204
225 1 18.436433 16.942090 17.644470 -0.01374186 -0.00092602 0.01430886 0.00003267 0.00001717 -0.00012141
226 1 23.566676 28.449741 20.764867 -0.01164449 0.02224401 -0.00339985 0.00003312 -0.00008551 -0.00012564
227 1 13.253440 1.356204 32.258087 0.02160983 -0.05564087 0.03743081 0.00012449 -0.00013995 0.00004766
228 1 30.513337 33.635599 14.227555 0.01077347 0.00874007 -0.01091669 -0.00010583 0.00000369 0.00001330
229 1 4.256588 5.338074 10.214535 0.04510186 0.04930186 -0.03003480 -0.00006980 -0.00005171 0.00040565
230 1 10.510660 5.973841 3.978816 -0.02689996 0.01692545 0.01940403 12223.08278577 -24931.44966729 5825.90604429
231 1 14.084015 19.084562 23.466322 0.00223665 0.02607155 -0.06089791 0.00015016 -0.00010173 0.00012187
232 1 1.054640 35.252518 11.274811 -0.02096607 0.00992102 0.06282450 -0.97471637 0.07196029 0.38794118
233 1 3.808076 30.918319 2.604671 0.02203986 0.01575904 -0.01424185 9.77048476 0.13398241 -1.52334424
234 1 6.133415 6.913296 7.369877 -0.00170027 -0.00719674 -0.00529711 0.00158433 -0.03623918 -0.03419415
235 1 9.376640 23.143220 34.025165 -0.01603837 -0.03876081 -0.03006454 -0.28772062 -0.43758522 1.09769912
236 1 17.930914 29.589432 7.790927 -0.02085827 0.02994822 -0.07714925 0.00033402 0.00022462 -0.00004520
237 1 27.873742 35.348870 26.914217 -0.03203607 0.00808970 -0.05574239 -0.00024945 0.00102132 0.00583188
238 1 13.093639 30.972868 11.187376 -0.01790276 -0.02786019 0.01989492 -93027.22916517 -25046.22495596 87522.00664454
239 1 26.944543 10.067341 25.938864 0.04360581 0.02115097 -0.00153142 0.00004116 -0.00018733 0.00013623
240 1 3.458623 1.065027 9.015275 0.00241136 -0.01877771 -0.01019612 -0.00012681 -0.00000016 0.00009365
241 1 35.375708 13.113482 1.331164 -0.00258255 -0.01200920 -0.03298404 6372.82213350 -101677.90682685 -25204.43829959
242 1 20.310801 32.692519 10.295253 -0.07588656 0.02284381 0.01610261 0.00004448 -0.00016749 -0.00014103
243 1 5.429642 21.002621 34.282861 -0.02981365 -0.00835334 0.01002261 -0.00060744 -0.00042981 -0.00007727
244 1 6.263310 8.915534 19.758690 0.01811445 0.02377080 -0.05197606 -0.00018146 0.00006907 0.00007492
245 1 25.523076 23.581852 21.529174 -0.04494565 -0.03975300 -0.01688433 -0.00002668 -0.00001592 -0.00000800
246 1 10.795256 17.176689 33.276256 0.02321463 -0.03477596 0.00395894 -0.00002346 -0.00011594 0.00007825
247 1 19.715002 35.721612 36.471214 -0.02481553 -0.01267707 -0.01431022 0.00007120 0.00008838 -0.00012814
248 1 12.466707 4.423850 3.451073 0.04437668 -0.03872569 -0.02145417 -0.09458075 0.07500013 0.02556600
249 1 10.872753 17.288706 18.969429 -0.02450472 0.00927425 0.06297679 0.00004887 -0.00030918 0.00004614
250 1 28.650405 8.650601 4.825691 0.05430334 0.01608548 -0.01107455 -0.00003463 -0.00005588 -0.00002241
251 1 10.040926 17.961322 1.053382 0.00121639 0.00020828 0.01255779 0.00004466 -0.00013634 0.00003272
252 1 36.201828 12.640654 7.865211 0.03794183 -0.01936809 0.01482881 -0.00016979 0.00002646 -0.00079715
253 1 4.169548 25.662392 22.551684 -0.00807121 -0.02763047 0.06487156 0.00004171 -0.00000786 -0.00008613
254 1 9.504716 17.025537 18.006732 0.04345985 0.02953883 0.04924832 -0.00007989 0.00010244 0.00008514
255 1 26.536154 33.368126 6.960793 -0.04772627 -0.02253709 0.05597762 0.00009303 -0.00017024 -0.00017167
256 1 15.523222 25.953532 12.102262 0.01767401 -0.01543521 0.01793881 0.00023479 -0.00015187 0.00011145
257 1 25.274477 16.935225 36.921877 -0.02344134 0.00229993 -0.02457436 -0.00273860 -0.00031360 -0.00006753
258 1 9.679617 32.356352 0.668560 0.06541105 0.01048109 -0.00844134 0.00015219 -0.00006783 0.00002784
259 1 1.352566 19.202310 7.321241 -0.01460768 0.01428270 -0.02499197 80359.04031658 -27873.10029067 23830.57595165
260 1 6.787310 29.570527 16.516495 0.04637500 0.01388114 0.01077604 -0.00007023 -0.00009728 0.00016611
261 1 21.481671 16.681414 36.296762 0.05081491 -0.01927658 0.01421676 169.29048757 221.52313027 -64.31387502
262 1 25.405606 27.757801 5.569321 -0.00754896 -0.01362874 0.01693104 -0.00137851 0.00174002 -0.00129798
263 1 7.607237 14.099845 13.641007 0.01669935 -0.03945077 0.02142408 -812.65923051 4.53269405 229.94941411
264 1 20.132397 0.340266 0.100938 0.01410841 -0.00415671 0.05560448 -1978568.58387375 -277254.42221912 447212.02555726
265 1 15.857306 19.745453 8.612070 -0.00941116 0.00694333 -0.00832344 0.00006226 0.00009749 0.00014076
266 1 29.189573 4.774386 6.269290 0.05447525 -0.01965995 -0.07074877 -0.00009557 0.00028405 0.00003124
267 1 5.084140 13.277280 11.956974 -0.02265919 -0.01072991 0.00332113 0.00099544 -0.00014336 0.00227299
268 1 16.297020 17.082629 17.363202 -0.01761692 -0.02133769 -0.03108660 -0.00004463 0.00009564 0.00015335
269 1 18.122375 4.335281 37.010078 0.02039843 -0.00244420 -0.00876126 -6.04109358 -6.39679692 14.03040138
270 1 32.886519 17.404515 23.492807 0.04373483 -0.07907058 -0.02153869 -0.00015063 0.00017979 -0.00012076
271 1 35.113847 21.143180 28.751284 0.01715509 -0.03205308 0.02727717 0.00019333 -0.00085549 -0.00162168
272 1 19.158605 11.103580 2.953892 0.02362677 0.01410386 -0.02586572 -0.00160382 -0.00024713 0.00135718
273 1 6.120969 15.757008 36.611153 -0.01810360 -0.00094578 0.01871314 0.00021296 0.00004348 0.00010263
274 1 16.767315 4.923656 14.497390 0.00915081 -0.04004248 0.01183088 -0.00018144 0.00003150 -0.00004624
275 1 36.674508 7.752345 1.844290 -0.03928248 -0.03917139 -0.01538948 443.28709822 -1893.53008678 619.17184498
276 1 17.803220 14.916707 19.814824 -0.00196226 -0.00592757 0.00931369 -0.00014751 0.00011143 0.00004514
277 1 35.205098 1.791609 6.674601 0.01525097 -0.05418073 -0.01992334 0.00059584 0.00025563 0.00018105
278 1 3.365792 12.852048 32.213775 0.02702381 -0.06471600 -0.08040759 -381511.65003746 93513.18361795 -339289.54264021
279 1 32.459027 15.667671 27.277770 -0.00993088 -0.00457605 0.00675878 -0.00022647 0.00001926 -0.00005703
280 1 13.867510 7.393989 33.197370 0.00375627 0.00048829 -0.00070674 -0.00009084 0.00005144 0.00017639
281 1 32.014149 7.441110 28.847513 -0.04425954 0.04986154 0.00259759 32.56526651 19.32183116 -23.67542470
282 1 20.267523 4.567531 15.769016 -0.02891355 0.03609369 0.02376911 0.00020128 -0.00002337 0.00009298
283 1 22.225270 16.319735 29.901032 0.01615655 -0.02604087 -0.03926597 -7253.20759067 -2458.61755458 -46654.52649493
284 1 8.160867 10.189443 17.610143 0.00521587 -0.01107792 -0.00969802 -512930.36352474 49510.81354441 -399048.86951852