LAMMPS data file for silica system 89

4098 atoms
2 atom types

0.0 39.361501 xlo xhi
0.0 39.361501 ylo yhi
0.0 39.361501 zlo zhi

Masses

1 28.0855  # Si
2 15.9994  # O

Atoms  # atomic

1 1 21.730457 11.489719 18.084461
2 1 0.806836 28.054564 17.802523
3 1 24.423680 5.185716 11.930730
4 1 18.307101 18.447322 5.143354
5 1 20.439535 20.274786 28.569762
6 1 32.526813 16.401260 20.906668
7 1 18.967310 23.012660 17.920032
8 1 18.046511 21.811018 29.559472
9 1 29.011896 10.589614 5.132638
10 1 16.393439 21.341912 34.707320
11 1 25.893888 26.300358 9.932648
12 1 24.267665 22.757741 18.140715
13 1 0.340623 4.748683 33.000077
14 1 8.242257 5.475109 37.448855
15 1 36.845363 17.576852 33.570007
16 1 22.992476 6.106317 24.827632
17 1 31.953424 38.465226 27.378382
18 1 33.680745 11.506345 21.428274
19 1 2.210252 12.799779 24.517751
20 1 18.187933 13.551073 31.546689
21 1 11.955145 19.153684 35.638696
22 1 4.625240 35.528859 18.424310
23 1 23.848971 5.466982 22.269197
24 1 5.364786 31.176304 0.469368
25 1 31.076346 18.703780 13.757769
26 1 11.189499 22.290166 31.237306
27 1 12.782675 22.469038 23.204667
28 1 29.339701 16.144610 33.020834
29 1 9.667616 18.644537 14.705052
30 1 2.623725 9.977512 17.800790
31 1 15.203405 20.378176 30.172544
32 1 30.741268 38.736431 33.528924
33 1 29.327952 32.471274 7.541411
34 1 34.337188 7.264340 22.307698
35 1 6.591083 18.952903 17.056806
36 1 34.250355 14.946659 14.757057
37 1 6.769810 36.769673 7.885624
38 1 1.834747 7.217407 14.349563
39 1 15.284172 9.884540 32.734078
40 1 5.679280 31.880313 34.811285
41 1 12.077968 25.573624 14.426543
42 1 11.082691 34.554314 21.416627
43 1 27.927852 11.754810 21.932441
44 1 39.106108 6.523224 1.413242
45 1 19.850037 1.812537 10.072270
46 1 4.543521 23.512818 23.014009
47 1 16.496629 23.050393 15.868961
48 1 38.976725 16.827822 31.826931
49 1 3.826948 39.010685 9.326210
50 1 12.422929 0.136726 0.905606
51 1 11.550399 20.616468 23.126533
52 1 37.230830 24.696285 12.292303
53 1 29.674967 3.316115 3.991773
54 1 34.053218 16.104774 33.917434
55 1 29.813281 26.339596 12.546633
56 1 17.693165 8.815293 15.755396
57 1 5.560746 31.380451 30.509398
58 1 32.976482 15.593995 31.248835
59 1 14.498791 32.977373 8.677800
60 1 1.268179 36.893124 38.042134
61 1 20.381281 15.363967 19.700688
62 1 18.210960 38.248322 24.677345
63 1 30.293756 36.813336 20.107970
64 1 36.016045 13.629904 12.028197
65 1 15.466078 31.772625 7.895172
66 1 6.196874 26.629921 27.638494
67 1 30.633563 37.821881 22.395059
68 1 37.660435 28.190268 35.951266
69 1 36.606129 31.828944 15.084254
70 1 11.959395 19.363003 8.909913
71 1 34.725350 15.566561 22.129308
72 1 18.453657 8.413932 11.243294
73 1 1.756260 21.825355 33.758379
74 1 33.075980 0.907036 6.912271
75 1 10.647029 30.884008 17.677367
76 1 35.763794 2.507757 15.523458
77 1 28.902068 24.254169 37.120093
78 1 11.410269 24.760723 19.271276
79 1 23.569646 32.971754 11.267796
80 1 13.452890 36.238374 18.235861
81 1 22.157791 25.603629 14.059981
82 1 16.116472 13.089175 19.850891
83 1 18.458460 3.289209 18.504557
84 1 0.503323 30.307060 24.800711
85 1 16.194656 39.354083 27.961375
86 1 28.419267 25.068552 26.265045
87 1 11.522509 24.298537 17.470991
88 1 1.446294 17.964836 37.370467
89 1 17.763069 25.437941 19.917566
90 1 15.486592 13.505579 19.536735
91 1 12.631482 4.070041 4.250340
92 1 3.225243 8.966650 1.514464
93 1 7.707013 37.989262 8.914938
94 1 14.641590 38.442862 31.945271
95 1 8.406102 14.548270 11.755382
96 1 11.852803 18.166242 27.134171
97 1 18.854795 5.839707 11.164670
98 1 36.777105 34.807189 31.353954
99 1 10.191144 8.295023 35.992331
100 1 22.113754 10.572237 27.597731
101 1 35.971623 32.533263 35.506369
102 1 24.750820 2.420148 27.808618
103 1 7.825900 0.071741 7.547581
104 1 6.778351 32.942381 34.077271
105 1 1.231753 34.173991 14.395280
106 1 35.339187 13.756453 31.284090
107 1 15.403192 33.653488 18.563966
108 1 20.533979 31.854809 19.458362
109 1 16.626326 3.472869 28.110452
110 1 16.892636 28.786236 18.937907
111 1 12.638920 29.989060 30.047970
112 1 26.687982 0.794150 32.398701
113 1 16.028358 22.053452 31.349178
114 1 16.116392 14.063723 36.269622
115 1 23.640844 32.907187 22.326367
116 1 0.124417 9.954792 37.976909
117 1 19.733315 9.630181 37.717568
118 1 4.862376 11.137489 37.707553
119 1 12.974369 18.697634 33.134340
120 1 21.834208 30.868977 19.403934
121 1 14.721488 25.516102 19.312973
122 1 15.885828 16.516853 7.995933
123 1 20.182238 16.787677 28.903835
124 1 39.339020 3.771599 8.671267
125 1 24.595105 17.871383 20.249697
126 1 16.772106 15.393295 15.025194
127 1 2.489030 37.123183 22.361975
128 1 10.970115 22.171392 21.583023
129 1 4.970640 14.812028 23.254282
130 1 32.789550 23.635309 30.824388
131 1 12.948906 20.554078 20.660969
132 1 21.000377 21.608354 28.318406
133 1 14.603947 28.606035 10.598560
134 1 20.351250 5.719088 36.727688
135 1 6.773981 21.332952 8.214901
136 1 29.737026 8.388682 36.759114
137 1 20.066938 37.086844 36.191407
138 1 31.774442 18.332488 19.402948
139 1 35.539917 32.576175 23.373715
140 1 21.961376 10.368471 5.095035
141 1 27.471916 17.502984 19.198883
142 1 17.755090 13.884019 19.391417
143 1 12.909503 11.211793 9.664901
144 1 32.067795 35.130192 31.118706
145 1 2.710958 37.910418 10.115720
146 1 17.753279 25.556665 37.487298
147 1 17.878161 18.956920 5.493237
148 1 17.510091 12.819553 3.966393
149 1 24.170878 0.683314 3.053528
150 1 12.533467 30.754521 26.008881
151 1 8.559511 1.174278 21.800212
152 1 22.360348 17.340382 7.262602
153 1 22.370632 24.423739 16.572553
154 1 1.169325 12.198094 25.224819
155 1 29.498662 10.853057 19.257305
156 1 38.289268 2.924352 11.692291
157 1 10.066051 37.351401 39.133645
158 1 6.013028 2.066045 1.255770
159 1 18.819406 3.979968 6.458475
160 1 17.186273 2.820950 26.661281
161 1 16.858921 36.683843 18.940560
162 1 28.481122 9.846625 21.277021
163 1 4.114200 39.069871 11.331435
164 1 25.637888 30.438313 21.492634
165 1 10.210986 3.662923 33.077614
166 1 30.227596 4.986004 0.110043
167 1 29.808218 34.569097 18.409752
168 1 35.580923 26.722240 19.418241
169 1 16.440126 19.493576 38.314713
170 1 24.772794 10.477823 21.353134
171 1 24.745079 26.319040 34.293922
172 1 38.136785 31.160119 4.895402
173 1 11.258527 16.603251 5.546431
174 1 33.667580 36.549479 33.049547
175 1 23.455265 8.619067 23.728986
176 1 8.158425 7.544164 9.476830
177 1 10.218307 8.246629 23.936235
178 1 33.106749 17.916329 0.200545
179 1 7.637703 32.078370 16.817829
180 1 16.418339 30.629968 33.652387
181 1 2.861155 23.158269 24.740267
182 1 28.499421 38.764662 36.588864
183 1 28.851913 34.495932 35.578294
184 1 20.060172 20.607387 25.561582
185 1 35.095536 25.779647 22.012319
186 1 30.878224 34.600412 0.358674
187 1 9.508770 31.618343 25.455221
188 1 24.176171 0.764915 29.345826
189 1 3.557020 16.906009 27.778974
190 1 0.589532 14.991442 31.055380
191 1 5.882946 8.049248 0.707080
192 1 2.524255 16.891564 22.264399
193 1 1.696419 17.060886 4.496207
194 1 23.275674 35.780383 38.943336
195 1 22.204530 30.991805 32.561268
196 1 16.580246 28.478577 10.170238
197 1 7.831527 31.535649 34.589028
198 1 35.352169 10.751401 29.882102
199 1 26.332051 19.069484 39.051394
200 1 15.971946 36.380743 9.415578
201 1 6.782182 35.033830 20.256333
202 1 31.137489 9.673468 29.911836
203 1 28.515996 28.527108 27.419733
204 1 34.086420 38.899583 36.406846
205 1 37.240500 33.612284 25.687737
206 1 26.415964 38.840482 7.648821
207 1 5.845724 23.045197 39.139315
208 1 23.114665 27.118098 33.517681
209 1 0.740711 31.759272 19.282172
210 1 26.975448 20.690781 36.934341
211 1 4.613758 14.567197 22.943119
212 1 15.449258 7.898496 22.836600
213 1 33.872654 35.269467 16.590992
214 1 6.610968 38.298930 22.420654
215 1 13.936396 20.799615 23.547740
216 1 35.900957 37.631761 13.502884
217 1 14.869277 22.868624 18.769109
218 1 4.329868 18.135035 14.387511
219 1 33.553653 36.646754 19.846368
220 1 26.984696 3.408100 12.279545
221 1 33.418730 34.751435 33.535678
222 1 33.706285 35.551488 32.939139
223 1 23.140649 19.168738 16.615743
224 1 27.023832 12.900141 22.136255
225 1 32.296237 33.138224 13.637885
226 1 1.422275 28.545590 31.245950
227 1 17.609340 12.445298 18.628935
228 1 29.893147 12.961974 0.031910
229 1 10.296688 24.522943 10.658920
230 1 37.433876 13.845253 20.015670
231 1 17.569217 38.609476 22.533101
232 1 7.166473 1.255823 0.574157
233 1 14.538838 12.950675 24.804175
234 1 14.249969 24.751181 19.050303
235 1 21.665695 13.433177 10.135528
236 1 6.279521 13.764542 15.077518
237 1 6.446789 24.828299 16.467801
238 1 13.857241 25.428355 12.634158
239 1 26.494165 6.244199 8.734588
240 1 17.083394 32.685008 1.258311
241 1 4.023388 22.178958 0.567576
242 1 30.516044 10.582596 31.338296
243 1 38.526524 27.780961 35.100263
244 1 17.223740 7.936240 4.239306
245 1 11.144710 12.148656 9.855687
246 1 21.570157 11.574863 30.809007
247 1 31.275800 20.059351 8.891649
248 1 13.979751 28.698367 22.414400
249 1 0.806006 6.085841 14.580226
250 1 1.633903 17.371450 12.443600
251 1 35.204169 19.616704 25.465568
252 1 28.121848 28.310933 27.457250
253 1 18.750917 0.383901 15.259799
254 1 3.271544 25.565499 32.306366
255 1 8.081311 25.377495 19.603247
256 1 9.813002 24.643562 33.312682
257 1 23.147053 22.286398 6.207274
258 1 14.657279 21.903602 32.843556
259 1 28.525182 2.129594 15.688549
260 1 27.536818 24.237825 5.985811
261 1 19.272175 3.453021 12.299187
262 1 9.870885 21.841089 33.244185
263 1 5.404911 17.319936 36.175242
264 1 31.919654 2.951445 10.974301
265 1 23.673754 19.447843 23.015557
266 1 19.904469 27.222021 14.158851
267 1 3.283221 12.828425 35.210192
268 1 1.391800 36.671004 11.380599
269 1 19.129099 25.760062 20.849570
270 1 31.232646 17.972714 34.321549
271 1 11.153796 29.697440 4.524548
272 1 6.396404 9.004340 21.302462
273 1 33.358590 23.123586 34.006468
274 1 29.898900 15.038148 32.493738
275 1 28.594720 28.954844 0.855728
276 1 8.786985 23.892389 24.568105
277 1 14.263993 15.496037 29.027522
278 1 37.965905 8.466953 12.606464
279 1 20.876896 17.621803 4.099800
280 1 7.293562 2.042226 18.270016
281 1 9.984058 18.532172 13.005517
282 1 16.852752 3.699986 28.531941
283 1 16.868314 35.747375 27.081642
284 1 23.837734 6.347116 38.803919
285 1 27.230563 17.838780 12.439961
286 1 20.963901 2.223110 30.212165
287 1 33.766214 21.950982 28.567149
288 1 39.352739 3.374863 12.243756
289 1 27.192415 27.726864 6.209498
290 1 19.039431 12.484269 12.397149
291 1 37.003772 18.674576 35.430090
292 1 14.446490 33.876531 20.762069
293 1 24.954250 16.126021 12.744599
294 1 21.943068 35.145629 9.832424
295 1 34.202234 36.379074 34.666503
296 1 3.439826 24.373585 2.422884
297 1 17.967834 5.768289 32.745499
298 1 14.790464 16.559422 25.103792
299 1 9.552923 28.344541 29.183704
300 1 29.387642 20.046371 1.113962
301 1 9.246897 33.903271 21.069535
302 1 35.422717 4.013080 29.551746
303 1 16.000090 19.031395 1.046218
304 1 30.012452 17.672088 0.718563
305 1 24.352312 21.588613 18.226508
306 1 16.331342 17.858179 15.056398
307 1 14.438367 8.451706 2.697600
308 1 25.361545 15.672745 37.637825
309 1 5.341415 7.773864 22.759662
310 1 8.104088 29.605511 30.213830
311 1 21.400033 12.734454 16.087289
312 1 8.900065 16.181186 8.244951
313 1 36.365657 33.026042 12.002334
314 1 13.717043 39.121636 25.209718
315 1 2.383005 38.508272 37.094623
316 1 21.162841 15.779285 6.525918
317 1 36.597742 23.713802 1.218253
318 1 27.696277 12.697137 21.153862
319 1 2.523479 25.488616 5.396042
320 1 29.409279 14.330588 11.520308
321 1 37.723113 3.686590 35.328312
322 1 5.013946 10.058672 28.604522
323 1 27.962934 32.888819 22.767734
324 1 25.932547 33.409955 17.164073
325 1 18.580445 38.051111 9.131701
326 1 38.541980 26.493695 38.197004
327 1 30.771108 2.388211 19.307083
328 1 16.705302 39.025722 14.022057
329 1 11.661600 33.921411 28.428791
330 1 22.255339 38.006124 37.522246
331 1 15.468566 39.329691 13.291183
332 1 26.923717 5.536071 32.605299
333 1 33.900086 25.898588 20.461481
334 1 33.604659 15.325905 38.753279
335 1 27.500872 25.736670 3.944590
336 1 2.536463 13.683621 28.013035
337 1 21.428317 37.520965 9.520199
338 1 5.510446 20.392876 32.598655
339 1 17.221770 30.756571 3.936858
340 1 27.094190 10.325538 30.202983
341 1 28.211706 31.002318 15.274686
342 1 38.771120 34.684037 39.243122
343 1 28.050450 36.830690 2.248877
344 1 13.223268 37.369012 32.165619
345 1 2.157346 7.012572 14.873302
346 1 20.596711 6.697984 11.721664
347 1 35.957535 7.838662 19.391410
348 1 7.649721 34.282951 29.828100
349 1 37.934266 28.787995 17.862491
350 1 16.027306 18.434734 7.438387
351 1 14.086983 12.343409 8.650219
352 1 31.979253 37.357849 13.183542
353 1 6.331127 26.582300 13.864190
354 1 13.604261 1.340198 10.700956
355 1 13.058301 8.757699 7.034008
356 1 28.034900 15.117484 30.699450
357 1 8.064103 33.809831 18.870002
358 1 27.704684 16.556809 7.527483
359 1 26.827770 23.611229 1.230922
360 1 28.974403 15.044866 0.779010
361 1 30.559874 12.526565 32.520730
362 1 34.618277 6.608109 31.024069
363 1 17.595461 36.959717 1.313779
364 1 30.206786 27.863847 2.901004
365 1 1.836197 37.775238 9.231526
366 1 16.550180 33.452936 33.370329
367 1 6.242801 2.037407 10.643964
368 1 4.182868 2.648480 31.798124
369 1 4.724596 36.311743 12.483365
370 1 32.974437 0.275053 25.491599
371 1 22.215180 6.033985 26.572351
372 1 31.581462 0.073224 22.350579
373 1 5.172717 12.778039 12.599919
374 1 8.030536 27.894337 25.629932
375 1 7.057508 2.640062 28.627620
376 1 17.757995 31.419760 4.513887
377 1 18.769212 0.777714 5.661148
378 1 25.275343 14.745739 7.162488
379 1 17.864349 37.292515 32.578475
380 1 4.435442 26.580024 30.607082
381 1 23.167444 29.004980 31.517586
382 1 21.643006 18.929487 30.303683
383 1 5.636118 36.228042 19.180104
384 1 9.057263 28.545546 27.512950
385 1 27.366529 0.308521 11.310156
386 1 11.340802 13.019125 28.692367
387 1 7.933099 33.746769 13.910345
388 1 7.637397 14.397599 14.435591
389 1 19.174055 10.289302 2.989318
390 1 30.191497 35.916518 9.560508
391 1 14.150735 38.193553 35.151268
392 1 26.417576 3.475007 2.754570
393 1 32.614577 4.609994 26.175922
394 1 9.505129 5.714265 36.442272
395 1 19.701199 0.465995 19.183208
396 1 32.178396 21.558970 33.869993
397 1 19.372702 20.636836 17.970200
398 1 24.584164 21.938530 25.025157
399 1 21.645226 16.533969 26.700343
400 1 8.074545 22.746436 22.060299
401 1 23.843483 9.789971 39.266473
402 1 37.942149 3.615755 31.060295
403 1 23.395740 18.342858 24.593226
404 1 17.885565 22.794482 30.982667
405 1 6.741581 25.453302 13.149366
406 1 19.595478 23.517395 13.227209
407 1 9.008670 22.260139 36.076119
408 1 6.810244 37.374921 33.504718
409 1 13.703666 17.108650 18.914438
410 1 9.076150 19.573882 32.736209
411 1 26.297236 14.860985 4.952907
412 1 27.936355 25.259647 8.730426
413 1 0.373283 8.819759 3.214605
414 1 6.670897 1.203751 14.459947
415 1 23.017763 10.644023 13.862814
416 1 0.518848 2.110635 33.834293
417 1 21.051608 1.531868 5.600831
418 1 8.677131 36.364226 7.028828
419 1 25.772754 4.671985 37.718809
420 1 28.873811 28.848750 38.266631
421 1 29.446537 37.025970 2.538153
422 1 28.655632 27.739022 7.673187
423 1 30.382345 22.037536 9.690874
424 1 32.376184 11.482051 35.236914
425 1 16.180449 22.126199 18.639054
426 1 17.950503 24.138120 37.210705
427 1 30.015580 11.705636 18.326479
428 1 9.503609 23.474024 3.131700
429 1 4.570697 5.833625 4.239300
430 1 31.316104 10.088053 30.234804
431 1 34.139516 34.700900 29.212943
432 1 3.323505 28.954261 33.969678
433 1 28.206425 27.816799 4.240957
434 1 12.023911 37.968118 12.155394
435 1 13.809405 10.284396 3.023939
436 1 3.146802 36.313387 13.116351
437 1 34.002913 17.998214 28.972188
438 1 26.733398 3.281165 14.202364
439 1 9.171616 15.485038 13.641715
440 1 12.929548 28.173868 16.350236
441 1 15.071482 34.489188 18.644267
442 1 20.293195 12.063663 9.507881
443 1 16.671303 26.720808 8.275911
444 1 14.076675 10.113038 10.066898
445 1 27.066031 33.729040 9.252367
446 1 37.610697 31.954196 24.723938
447 1 17.671047 37.338779 2.395126
448 1 12.311635 15.737773 7.504195
449 1 11.686771 22.009244 28.470759
450 1 15.263547 27.574068 20.648965
451 1 21.054574 7.273200 17.512037
452 1 22.032481 2.716427 8.367055
453 1 12.276284 19.987235 16.240324
454 1 25.554020 4.259907 29.857086
455 1 34.808419 37.718940 29.339518
456 1 25.479152 21.091649 5.792141
457 1 4.242987 6.784402 20.769369
458 1 12.906609 25.131093 20.292600
459 1 31.871774 11.423014 31.031560
460 1 0.812542 1.418632 26.844825
461 1 8.815831 26.921439 30.815775
462 1 21.893317 32.504023 25.862108
463 1 29.942097 0.878431 22.193994
464 1 12.346331 33.372758 38.836201
465 1 29.894405 3.798880 2.018843
466 1 20.204661 1.484686 28.821263
467 1 33.275231 3.703001 34.408658
468 1 4.138235 18.160636 1.746021
469 1 27.395100 24.666802 25.431617
470 1 1.760826 34.063323 8.734948
471 1 26.780534 6.572455 39.339494
472 1 13.716761 32.822646 22.452519
473 1 25.763638 19.650219 19.359420
474 1 36.296826 19.879858 38.285417
475 1 6.440584 16.141574 24.755636
476 1 13.263773 32.792008 8.900024
477 1 32.752420 15.085736 6.722665
478 1 12.396526 38.563636 25.649980
479 1 20.843159 21.404319 5.079625
480 1 16.323636 19.168137 29.092071
481 1 11.684396 20.740364 28.515121
482 1 38.310368 32.290659 38.543459
483 1 32.837287 19.168574 12.634977
484 1 36.269989 34.103631 17.885152
485 1 2.258381 4.260619 19.683863
486 1 4.707904 28.457215 33.791679
487 1 28.814044 11.725802 37.670203
488 1 33.702986 35.991690 15.762550
489 1 36.634088 22.243672 11.331331
490 1 0.990530 15.512475 3.349688
491 1 29.619036 4.046044 24.715616
492 1 23.533169 31.727311 29.894092
493 1 31.240494 35.855137 8.907725
494 1 21.777236 23.944943 19.266791
495 1 21.740808 10.573675 12.864612
496 1 8.144700 9.057696 34.829410
497 1 1.231982 25.540859 32.633114
498 1 29.568339 24.744432 2.243333
499 1 6.651291 12.671540 16.821537
500 1 15.466865 22.797260 4.425790
501 1 9.484935 32.524919 25.152242
502 1 8.141052 39.348008 27.632470
503 1 30.917482 22.573246 4.887959
504 1 2.002473 13.278798 28.544464
505 1 6.664226 31.341029 35.912142
506 1 21.961770 4.461123 37.422506
507 1 27.178713 7.489620 14.485633
508 1 31.764456 16.801984 28.164627
509 1 10.407309 16.121706 18.701923
510 1 8.547143 36.192380 23.678718
511 1 2.724636 9.237472 21.300243
512 1 8.458047 23.051441 34.651586
513 1 0.217414 3.779527 10.695983
514 1 35.081389 24.996184 4.885596
515 1 9.446385 15.845340 5.006675
516 1 15.703677 1.256837 37.975169
517 1 7.094151 6.065855 38.185489
518 1 35.156007 27.665572 9.249308
519 1 1.814143 11.470297 12.436405
520 1 10.993384 35.634719 22.027285
521 1 16.429849 7.587995 22.327224
522 1 22.982296 24.223902 18.397725
523 1 5.367239 4.713824 37.182079
524 1 35.802712 38.887079 7.716114
525 1 25.985536 21.339473 4.619780
526 1 16.163901 15.959698 23.835338
527 1 17.780775 22.195561 13.115050
528 1 26.809490 30.040711 18.669561
529 1 36.713899 20.062776 17.124402
530 1 36.452034 27.092963 16.762470
531 1 6.350100 4.261706 17.080742
532 1 14.510740 30.228962 8.978474
533 1 8.398377 38.604461 9.741157
534 1 7.751627 11.849626 33.206641
535 1 16.552494 10.487545 35.420774
536 1 36.826274 2.481947 28.477490
537 1 10.475947 38.338242 27.766842
538 1 16.726986 28.355464 6.023750
539 1 30.447540 8.631647 38.326024
540 1 28.022585 33.342575 22.470255
541 1 4.043546 31.024160 25.433059
542 1 6.302584 29.611504 12.177571
543 1 36.422252 13.177926 34.348064
544 1 8.860596 1.087887 6.531873
545 1 36.000797 2.668536 28.760882
546 1 16.112797 33.447194 33.920590
547 1 10.342790 36.646099 28.376157
548 1 7.473361 31.648899 0.038035
549 1 21.373787 32.769832 34.372526
550 1 15.641171 10.652612 31.664892
551 1 0.248395 7.355745 35.350036
552 1 24.637275 35.150563 10.570724
553 1 5.466617 13.859452 33.947201
554 1 10.130475 5.679566 15.482659
555 1 13.877442 17.234150 7.443205
556 1 29.750683 33.536446 30.933064
557 1 22.448013 0.937577 22.279723
558 1 24.352964 29.906570 38.401415
559 1 37.911370 15.835473 11.301753
560 1 26.592851 19.750651 28.174596
561 1 6.174806 15.437743 34.324083
562 1 37.151767 27.113007 13.082297
563 1 4.584715 5.487901 29.175473
564 1 31.992667 22.856372 8.347379
565 1 26.417374 19.170924 30.582644
566 1 36.885867 3.834093 36.255282
567 1 27.684144 11.631736 19.137026
568 1 21.895298 37.083818 9.946704
569 1 2.792440 37.279378 5.813024
570 1 15.637579 18.345008 0.796712
571 1 6.945533 21.256549 26.604355
572 1 20.376740 24.056158 10.647533
573 1 34.105151 8.556911 17.087095
574 1 18.947575 36.201434 20.125826
575 1 19.405728 32.901578 39.025082
576 1 7.319596 10.430540 27.085675
577 1 31.431439 11.265599 19.510038
578 1 10.814622 28.520836 33.613375
579 1 15.500685 33.978205 25.287216
580 1 19.033506 8.528566 38.691753
581 1 25.778045 18.263899 16.127273
582 1 15.089663 25.039393 36.674083
583 1 11.252799 5.394962 9.251653
584 1 36.481914 37.312689 25.092150
585 1 35.719726 20.662014 33.001526
586 1 33.564080 2.832165 17.844100
587 1 20.349745 20.806977 10.175092
588 1 18.006192 13.315793 37.076249
589 1 17.557996 0.645991 0.945721
590 1 7.521252 20.461795 17.737039
591 1 0.477337 24.428324 2.703545
592 1 27.138417 15.343268 34.769012
593 1 30.338716 16.618875 10.709313
594 1 7.477883 0.097128 4.238667
595 1 37.908809 10.709337 21.422121
596 1 20.416538 38.523265 20.613879
597 1 16.287067 8.185786 22.129281
598 1 15.269598 2.313004 38.146801
599 1 14.955091 14.677353 31.139803
600 1 31.336258 20.940861 37.412494
601 1 33.603201 15.127733 5.848706
602 1 17.873531 32.620241 32.182204
603 1 24.850327 17.815973 24.073565
604 1 3.797743 4.747966 36.247091
605 1 10.127630 34.936762 36.896968
606 1 25.835776 35.405335 35.316859
607 1 26.716670 29.293129 27.759746
608 1 27.788077 18.404359 9.266613
609 1 34.783979 20.386388 20.542069
610 1 10.650640 26.202093 13.139573
611 1 5.554497 2.390367 9.563559
612 1 14.716508 37.966946 26.543274
613 1 20.270165 28.040010 13.793808
614 1 25.598292 6.706524 10.873030
615 1 27.403169 12.081509 34.100651
616 1 12.925256 8.819445 22.577059
617 1 29.985236 32.691584 16.741717
618 1 24.001608 13.459293 21.870854
619 1 25.219282 12.029934 20.510950
620 1 38.241067 26.354552 24.372549
621 1 28.106158 20.995260 16.117560
622 1 14.342060 10.340474 13.270211
623 1 31.684186 22.849685 23.004468
624 1 4.704784 16.633633 15.697660
625 1 7.335289 35.874614 0.890800
626 1 34.665091 7.392449 1.142715
627 1 38.915092 18.917429 14.564846
628 1 31.952751 11.802881 28.021767
629 1 31.191042 14.571825 36.324893
630 1 16.059337 25.879199 12.776301
631 1 7.132139 4.285986 19.322478
632 1 17.241253 32.177001 7.295024
633 1 3.412769 26.122785 34.891707
634 1 9.905834 32.465960 29.876887
635 1 37.317616 34.711888 4.520210
636 1 17.751672 34.026749 4.594047
637 1 3.590169 7.200537 30.175939
638 1 13.866667 19.966084 9.815331
639 1 39.204444 28.126669 23.095605
640 1 1.250571 22.723259 1.254339
641 1 35.133431 6.797424 32.878904
642 1 13.187114 0.400307 28.346632
643 1 4.616022 36.907798 21.355647
644 1 28.002519 23.914718 0.719433
645 1 32.409835 6.304462 16.541646
646 1 31.508370 36.609693 21.612390
647 1 7.687224 5.281614 12.397263
648 1 31.558860 20.663758 5.894113
649 1 11.303251 9.679008 16.061624
650 1 31.224110 35.089238 27.904722
651 1 17.901250 23.711909 18.716438
652 1 14.888325 37.982203 13.212502
653 1 21.685935 28.436772 26.172299
654 1 2.258438 16.686321 20.382163
655 1 38.775121 8.084760 16.653169
656 1 36.862954 31.362668 1.708412
657 1 35.214854 10.205604 37.894117
658 1 8.175724 14.090821 18.349879
659 1 37.851222 29.130519 17.468752
660 1 27.857860 25.795188 5.402521
661 1 14.388728 25.687572 18.641081
662 1 39.007723 31.230400 21.022076
663 1 30.897072 3.667762 35.855019
664 1 5.183827 3.516431 32.998816
665 1 31.070920 23.906842 22.321237
666 1 33.743410 38.464366 33.831870
667 1 25.419910 14.109318 2.656267
668 1 9.452583 33.145711 29.520599
669 1 0.900009 3.615442 9.393168
670 1 6.038749 28.791910 27.621244
671 1 38.320516 18.961768 24.385342
672 1 32.476243 1.567318 16.150494
673 1 36.544683 33.675633 8.058838
674 1 32.010541 1.526482 32.778639
675 1 32.737149 35.420285 22.920840
676 1 5.067596 36.133642 37.540476
677 1 27.884200 17.469249 13.960976
678 1 3.212168 2.045235 9.525202
679 1 35.253725 19.475701 31.133084
680 1 36.367652 0.177950 18.520350
681 1 7.540239 31.252074 8.576466
682 1 37.948210 31.651554 7.715124
683 1 0.619564 37.146993 7.324472
684 1 18.078120 23.051874 15.770436
685 1 6.339726 38.079870 19.006047
686 1 29.925804 32.946598 6.396221
687 1 2.288229 12.491635 9.228290
688 1 21.968897 28.819769 17.929363
689 1 17.872081 3.792616 10.785154
690 1 22.854115 10.302035 26.333969
691 1 11.005351 38.156166 7.165652
692 1 27.549441 10.923350 4.434035
693 1 8.429088 33.751015 9.429378
694 1 9.035724 26.476632 0.365065
695 1 22.261071 14.261239 1.528866
696 1 20.014783 38.706651 11.519586
697 1 32.897846 16.194729 11.362126
698 1 18.060308 27.143614 5.620969
699 1 9.894966 0.351504 2.190473
700 1 19.071044 36.468804 30.443725
701 1 15.444490 25.330544 3.219739
702 1 10.973694 9.436906 19.138544
703 1 17.073788 3.860230 27.425691
704 1 13.244131 8.330238 38.453571
705 1 16.560399 27.071418 20.258333
706 1 35.831116 32.672567 27.160081
707 1 7.647702 35.373316 25.269456
708 1 27.754159 13.640962 22.379936
709 1 36.871267 37.220999 35.965157
710 1 2.133994 14.335613 19.696740
711 1 27.429313 2.572311 34.405486
712 1 4.194532 38.181844 35.565261
713 1 19.782307 10.487348 25.810223
714 1 7.342335 17.788363 5.590495
715 1 31.144613 24.218582 36.994119
716 1 36.003711 30.604088 27.239219
717 1 6.652849 8.325006 13.556793
718 1 29.151986 21.503204 20.180398
719 1 6.769914 9.630463 36.705618
720 1 28.927818 31.946793 19.541385
721 1 31.136810 38.996276 36.089111
722 1 19.593159 6.256102 23.822643
723 1 16.966007 34.593194 17.194906
724 1 38.202678 11.292026 26.710382
725 1 34.024829 37.147024 30.848961
726 1 2.751880 30.972374 12.345536
727 1 32.181605 9.275773 1.713408
728 1 34.250159 20.648400 7.966325
729 1 38.383247 17.454254 2.245692
730 1 31.853848 37.475390 7.045330
731 1 36.502492 17.162541 6.980211
732 1 22.482861 20.367436 0.741968
733 1 19.633395 24.864263 11.865200
734 1 9.024806 32.592711 14.111439
735 1 28.254991 18.528100 35.846516
736 1 29.192141 23.492349 36.056177
737 1 20.498773 36.582914 25.591417
738 1 9.829449 21.585149 38.386176
739 1 31.663309 22.324201 8.548423
740 1 36.868531 16.045170 9.073197
741 1 1.047934 33.658532 25.877686
742 1 37.028016 14.212794 36.431682
743 1 31.349468 36.311505 35.593615
744 1 23.836105 0.051132 28.663186
745 1 15.846542 18.178315 8.846743
746 1 7.715848 24.120591 16.178448
747 1 5.992400 33.944128 6.468641
748 1 23.317335 34.875735 6.900520
749 1 8.474859 7.739788 28.532960
750 1 21.283715 1.649161 28.425818
751 1 19.772991 34.763868 18.576840
752 1 33.986758 12.627023 0.597488
753 1 32.076629 9.451446 26.697844
754 1 7.815517 11.773545 39.237952
755 1 6.418210 11.616101 35.294119
756 1 36.802618 33.938972 27.792488
757 1 13.446028 14.972790 24.012765
758 1 12.234836 30.125782 17.355931
759 1 5.134458 8.479261 26.195232
760 1 35.717750 27.072193 10.013233
761 1 5.886759 6.855930 24.213103
762 1 18.842387 32.783146 2.761449
763 1 14.008791 27.391049 25.464012
764 1 27.819362 15.635974 21.587220
765 1 34.586013 31.573490 2.853473
766 1 34.965763 28.877398 21.577719
767 1 37.775802 1.179425 26.157854
768 1 30.978677 28.641502 30.490483
769 1 26.961456 28.005933 38.647263
770 1 34.994186 32.921178 1.141911
771 1 15.095087 3.980537 29.343433
772 1 19.676149 8.495485 34.672086
773 1 31.470047 17.827951 4.449331
774 1 12.501306 12.656536 9.797114
775 1 21.830270 5.511599 25.831820
776 1 35.025154 12.416312 38.900427
777 1 5.792991 31.225826 38.315720
778 1 10.554908 18.983014 24.853695
779 1 37.039363 6.698418 37.156615
780 1 29.288340 11.318326 21.655114
781 1 37.847564 9.896460 38.528440
782 1 18.792371 32.372489 17.247364
783 1 38.760936 37.365219 5.454590
784 1 33.344869 13.882610 34.099498
785 1 32.320699 2.164982 24.355542
786 1 34.535394 37.108273 16.533619
787 1 5.779615 6.295656 11.564340
788 1 33.072882 4.311198 18.874648
789 1 17.083022 6.698886 17.767355
790 1 37.982826 36.796320 20.136395
791 1 3.231463 19.685346 14.198545
792 1 34.234331 1.889028 39.219354
793 1 25.920551 38.105329 24.682552
794 1 14.662934 0.349106 20.735021
795 1 13.411931 26.880611 13.659606
796 1 12.620965 19.574884 7.184359
797 1 36.962438 32.719193 14.734169
798 1 3.975186 8.339831 9.958624
799 1 12.752653 11.742894 37.103614
800 1 22.156952 4.731296 24.726933
801 1 4.647514 4.173494 25.835205
802 1 33.899697 4.169350 22.176561
803 1 11.100216 31.449483 17.372808
804 1 23.059990 0.712518 17.937895
805 1 22.618345 18.324077 25.531326
806 1 35.554033 32.858623 19.674609
807 1 0.698779 5.204417 10.601956
808 1 24.300823 30.606044 19.389211
809 1 37.044923 27.430624 10.682188
810 1 7.916203 33.738385 7.966841
811 1 38.005588 13.955568 21.907761
812 1 37.612012 9.628473 21.261817
813 1 34.220620 32.412402 15.382303
814 1 16.336397 4.477132 22.140260
815 1 16.235457 33.532937 18.923390
816 1 25.158208 32.586598 23.999940
817 1 5.704111 39.347145 32.087898
818 1 36.246890 18.131691 6.993237
819 1 26.223409 37.536710 17.775032
820 1 30.941923 39.352732 0.496806
821 1 10.401096 8.920782 35.496565
822 1 22.392621 19.000059 5.920207
823 1 28.468664 33.535125 9.658181
824 1 26.266332 33.482060 23.378975
825 1 13.391567 28.312735 16.510061
826 1 11.084109 7.078874 31.305611
827 1 21.779722 18.092294 7.405137
828 1 16.060055 2.379105 32.008578
829 1 26.169705 20.375686 39.154450
830 1 13.735090 20.317330 29.799725
831 1 36.465960 37.697137 25.281607
832 1 38.422581 25.460321 38.567477
833 1 2.821221 20.461019 7.192905
834 1 35.693674 17.876296 23.078999
835 1 33.604463 15.417551 36.616421
836 1 27.901276 10.806982 32.467067
837 1 19.640244 5.047331 32.835595
838 1 29.913700 18.393002 19.413764
839 1 33.492042 4.912107 23.745263
840 1 34.721104 0.428869 1.405165
841 1 4.038462 4.658383 35.499612
842 1 7.771945 5.852191 17.410463
843 1 27.596579 1.796639 24.239591
844 1 19.395277 9.982815 34.562347
845 1 18.513894 2.452089 15.237670
846 1 20.890875 29.571251 19.420129
847 1 8.759623 16.680830 35.141605