ITEM: TIMESTEP
0
ITEM: NUMBER OF ATOMS
4098
ITEM: BOX BOUNDS pp pp pp
0.0 39.361501
0.0 39.361501
0.0 39.361501
ITEM: ATOMS id type x y z vx vy vz fx fy fz
1 1 21.730457 11.489719 18.084461 0.06893694 -0.01041933 0.03037364 0.00005271 -0.00000749 -0.00009271
2 1 0.806836 28.054564 17.802523 0.01194661 -0.01971100 -0.02593311 -0.00010613 0.00011483 -0.00025045
3 1 24.423680 5.185716 11.930730 0.06761256 -0.03183001 0.04355527 79.12629132 507.74918118 451.21819185
4 1 18.307101 18.447322 5.143354 0.04225059 -0.05266303 -0.03232979 0.00017403 -0.00001762 -0.00005350
5 1 20.439535 20.274786 28.569762 0.03679432 0.03283254 0.02842494 -0.00001958 0.00013519 0.00008156
6 1 32.526813 16.401260 20.906668 -0.02428868 -0.04372478 -0.04355126 -0.00010580 -0.00013960 -0.00014306
7 1 18.967310 23.012660 17.920032 0.00640081 -0.01048283 -0.00280549 0.00005526 0.00007944 -0.00001646
8 1 18.046511 21.811018 29.559472 -0.00350046 0.04003099 -0.04373392 0.00000079 -0.00001368 0.00006547
9 1 29.011896 10.589614 5.132638 0.01116701 0.00828245 0.00428372 -0.00001123 0.00007609 -0.00014975
10 1 16.393439 21.341912 34.707320 0.00606566 0.02751195 0.03795105 -0.00003347 -0.00015903 0.00011510
11 1 25.893888 26.300358 9.932648 -0.02143610 0.04528598 -0.02799962 -0.00003745 -0.00004206 0.00001083
12 1 24.267665 22.757741 18.140715 -0.01347434 -0.07077543 0.02014772 0.00001541 0.00014075 -0.00001530
13 1 0.340623 4.748683 33.000077 0.03971399 0.02044001 -0.02089692 0.00006221 -0.00000914 -0.00002184
14 1 8.242257 5.475109 37.448855 0.02124009 -0.02543883 -0.04088559 -0.00008025 0.00000614 0.00000759
15 1 36.845363 17.576852 33.570007 0.02227886 0.05756257 -0.01816614 -11931.46690071 31629.72480682 3855.54423422
16 1 22.992476 6.106317 24.827632 -0.00423295 0.03516555 -0.02915205 -437083.32301460 -48335.48376357 -269907.84172556
17 1 31.953424 38.465226 27.378382 -0.02118833 -0.00527493 0.03247408 0.00005772 0.00000231 0.00021584
18 1 33.680745 11.506345 21.428274 0.01751719 -0.00901135 -0.00638913 0.00010035 -0.00005126 0.00004291
19 1 2.210252 12.799779 24.517751 0.00665025 0.00520647 -0.03420447 -0.00004057 0.00004646 0.00011649
20 1 18.187933 13.551073 31.546689 -0.03018077 -0.00488803 0.00754078 -0.00002358 0.00014480 -0.00000622
21 1 11.955145 19.153684 35.638696 -0.01682108 0.05380653 0.00512037 0.00005600 -0.00004037 0.00016873
22 1 4.625240 35.528859 18.424310 0.01371347 -0.01149171 -0.00388074 3.43561480 -91.53321153 245.15082364
23 1 23.848971 5.466982 22.269197 -0.02091787 0.01217423 0.00115595 -0.00947079 0.00702682 0.02855839
24 1 5.364786 31.176304 0.469368 -0.03700584 -0.01476060 0.03272246 0.00000694 0.00007159 0.00010525
25 1 31.076346 18.703780 13.757769 -0.02602697 0.04259058 0.01956063 0.00007708 -0.00002643 0.00000503
26 1 11.189499 22.290166 31.237306 0.01718724 -0.00072684 0.01916201 -0.00006823 -0.00007042 0.00008955
27 1 12.782675 22.469038 23.204667 -0.02623265 0.03317181 -0.01816087 0.00016407 0.00000532 -0.00020762
28 1 29.339701 16.144610 33.020834 0.00810467 0.00555366 -0.00198585 -0.00003430 0.00003418 -0.00009450
29 1 9.667616 18.644537 14.705052 -0.01486124 -0.01838121 0.01225962 -0.00000749 -0.00024917 0.00005534
30 1 2.623725 9.977512 17.800790 -0.00079448 0.00951493 0.06152155 0.00002825 0.00004648 -0.00005038
31 1 15.203405 20.378176 30.172544 0.00244768 0.02145974 0.03241370 -0.00003035 0.00002722 -0.00016847
32 1 30.741268 38.736431 33.528924 0.06659938 -0.02862646 -0.02304110 0.00006207 0.00000716 -0.00001406
33 1 29.327952 32.471274 7.541411 0.01959649 0.00631633 -0.01857604 -0.00005895 -0.00003318 -0.00010708
34 1 34.337188 7.264340 22.307698 -0.02781454 0.02619284 0.03036931 0.00022257 -0.00011423 -0.00017450
35 1 6.591083 18.952903 17.056806 0.02797198 -0.01029549 -0.05042356 -0.00011646 0.00002139 -0.00005598
36 1 34.250355 14.946659 14.757057 -0.01040483 0.00380555 0.00153653 -0.00003397 -0.00002903 -0.00002351
37 1 6.769810 36.769673 7.885624 -0.03204111 -0.00709249 -0.00737067 -0.00000920 -0.00003959 -0.00000469
38 1 1.834747 7.217407 14.349563 0.00826317 0.02649874 -0.01760197 -0.00006674 0.00007516 0.00000590
39 1 15.284172 9.884540 32.734078 0.00091930 -0.03012848 -0.05277583 0.00013475 0.00006204 -0.00010872
40 1 5.679280 31.880313 34.811285 -0.04288764 -0.00606267 -0.02287366 0.00009999 0.00011735 -0.00001439
41 1 12.077968 25.573624 14.426543 0.03361372 -0.00583606 -0.00007424 0.00003697 0.00005447 -0.00009339
42 1 11.082691 34.554314 21.416627 -0.03521148 0.00888341 0.02129947 0.00013661 -0.00001563 -0.00014615
43 1 27.927852 11.754810 21.932441 -0.07605571 0.00081010 -0.01359989 -10608879.73015360 -6001957.77685697 -15222090.36435411
44 1 39.106108 6.523224 1.413242 -0.01218793 -0.01455253 -0.00637111 0.00010038 -0.00009323 -0.00014461
45 1 19.850037 1.812537 10.072270 -0.01264252 0.03959245 0.02615984 0.00008412 -0.00018616 0.00002636
46 1 4.543521 23.512818 23.014009 -0.00564150 0.00889205 -0.00664876 -0.00002455 -0.00001859 0.00006663
47 1 16.496629 23.050393 15.868961 0.00885656 0.01913816 0.01952703 475.05784742 316.45043545 40.16188738
48 1 38.976725 16.827822 31.826931 -0.03839897 -0.01943228 0.02141933 -0.01340919 0.00469671 0.01078316
49 1 3.826948 39.010685 9.326210 0.00725731 -0.02774986 0.01694283 -0.00003817 -0.00004752 -0.00004588
50 1 12.422929 0.136726 0.905606 -0.02607783 0.02538535 0.03173977 -0.00004465 0.00000904 -0.00003822
51 1 11.550399 20.616468 23.126533 -0.01330197 -0.02280478 0.01680253 0.00003523 -0.00004269 0.00007160
52 1 37.230830 24.696285 12.292303 0.00915820 -0.00758654 0.00264790 0.00004788 0.00020422 0.00002189
53 1 29.674967 3.316115 3.991773 -0.00379115 -0.04919286 0.04264237 -56389152.70887686 91540604.55864610 -228763382.05521065
54 1 34.053218 16.104774 33.917434 0.02858796 -0.09197105 -0.00230131 -0.00047037 -0.00010650 0.00008427
55 1 29.813281 26.339596 12.546633 0.00121607 0.02995608 0.03768693 -11.31582742 -13.99999585 13.07060140
56 1 17.693165 8.815293 15.755396 -0.04023207 0.01347872 0.02309717 0.00000344 -0.00012332 -0.00011783
57 1 5.560746 31.380451 30.509398 0.03875869 0.02620495 -0.00270945 0.00016311 0.00010725 0.00010714
58 1 32.976482 15.593995 31.248835 -0.00467326 -0.02334418 0.02288414 -0.32468296 0.39845772 0.45414497
59 1 14.498791 32.977373 8.677800 -0.01582257 0.00341391 0.04293915 0.00000935 0.00009703 0.00001687
60 1 1.268179 36.893124 38.042134 -0.05009457 0.00132132 0.00822071 0.00008439 0.00018095 -0.00015230
61 1 20.381281 15.363967 19.700688 0.01762532 0.00022206 0.00795967 0.00002471 -0.00007427 -0.00015618
62 1 18.210960 38.248322 24.677345 0.03013753 0.00914327 -0.02339588 -0.00007724 0.00006604 0.00002987
63 1 30.293756 36.813336 20.107970 0.02135521 -0.02535688 0.01945424 -0.00007197 -0.00008091 -0.00008533
64 1 36.016045 13.629904 12.028197 -0.02325395 0.05954859 0.04716740 0.10404126 0.31674266 -0.19102947
65 1 15.466078 31.772625 7.895172 -0.02045079 0.04610671 0.02037896 -31.05209189 -119.70901286 274.75238915
66 1 6.196874 26.629921 27.638494 -0.04242218 0.09379126 0.00478700 -0.00009092 -0.00004302 -0.00000017
67 1 30.633563 37.821881 22.395059 -0.00913412 0.04675238 0.00212787 -0.00003952 -0.00002141 -0.00003287
68 1 37.660435 28.190268 35.951266 -0.03173133 -0.03932135 -0.01775371 -0.00007528 -0.00000564 -0.00012335
69 1 36.606129 31.828944 15.084254 0.01511270 0.02327675 0.01583262 0.00015423 0.00000961 0.00004150
70 1 11.959395 19.363003 8.909913 0.00530423 0.03012050 -0.02979128 -0.00006036 0.00006912 -0.00017101
71 1 34.725350 15.566561 22.129308 -0.01712302 0.04510916 0.00735857 -0.00001970 -0.00003600 0.00012680
72 1 18.453657 8.413932 11.243294 -0.06058990 0.05959626 -0.00492795 -0.00009898 0.00002214 -0.00001135
73 1 1.756260 21.825355 33.758379 0.00340042 0.01202529 -0.06457953 0.00002721 0.00005401 -0.00021195
74 1 33.075980 0.907036 6.912271 0.02014041 0.00929526 -0.00099658 -0.88773130 -0.24015762 -0.52498623
75 1 10.647029 30.884008 17.677367 -0.00673117 0.06368305 0.01113341 -0.00003630 0.00016374 0.00008723
76 1 35.763794 2.507757 15.523458 0.04528775 0.05716017 -0.00915977 138.89321668 -232.75461452 -74.98926340
77 1 28.902068 24.254169 37.120093 -0.02244200 0.02646602 -0.01856215 0.00013816 -0.00009485 0.00014505
78 1 11.410269 24.760723 19.271276 0.02969229 -0.02484668 0.03395964 551.44751573 472.72514537 -129.83623233
79 1 23.569646 32.971754 11.267796 0.05228652 -0.02213800 -0.01342230 0.00007278 0.00006670 0.00009313
80 1 13.452890 36.238374 18.235861 -0.01598231 0.04022679 -0.04561871 0.00024125 -0.00003335 -0.00000472
81 1 22.157791 25.603629 14.059981 -0.00327005 0.02738174 0.02777254 -45.18034622 18.68696186 75.48574719
82 1 16.116472 13.089175 19.850891 0.01610751 -0.05011480 0.02388599 -351299.27990822 232295.10913463 -175299.39917496
83 1 18.458460 3.289209 18.504557 -0.00062707 0.02643128 0.01971581 -0.00014418 -0.00007548 0.00004746
84 1 0.503323 30.307060 24.800711 -0.00039815 -0.01049685 0.06150640 0.00004357 0.00010110 -0.00003537
85 1 16.194656 39.354083 27.961375 0.03430839 0.01721227 -0.10304465 -0.00014578 0.00006352 0.00002071
86 1 28.419267 25.068552 26.265045 0.02718211 0.00766762 -0.00741203 -0.00010107 0.00005718 0.00004101
87 1 11.522509 24.298537 17.470991 0.01485819 0.04749578 0.01302569 -0.59663968 2.45484725 9.56131203
88 1 1.446294 17.964836 37.370467 -0.01248341 0.02319240 0.05485973 0.00033170 0.00009385 0.00022026
89 1 17.763069 25.437941 19.917566 -0.00433457 0.00791035 -0.00652045 0.00032487 0.00035154 0.00052751
90 1 15.486592 13.505579 19.536735 -0.02326992 0.01906235 0.00601807 351679.52041142 -232490.03313633 175402.09131218
91 1 12.631482 4.070041 4.250340 0.04813423 -0.00454216 0.00421845 -0.00005258 0.00025226 0.00008876
92 1 3.225243 8.966650 1.514464 0.01314507 0.03361225 -0.03889285 -0.00006621 -0.00010919 0.00008297
93 1 7.707013 37.989262 8.914938 0.00988765 -0.01842339 0.02123371 0.00020984 -0.00008005 0.00006545
94 1 14.641590 38.442862 31.945271 -0.04739886 0.01646202 0.02036756 -0.00009229 0.00011985 -0.00039838
95 1 8.406102 14.548270 11.755382 -0.02045073 -0.02377565 0.00931876 0.00017828 0.00012815 0.00008703
96 1 11.852803 18.166242 27.134171 0.02133739 -0.02671290 0.00607436 -0.00005488 -0.00026017 0.00009188
97 1 18.854795 5.839707 11.164670 -0.01347187 0.07068004 -0.05613844 -0.00035337 -0.00007116 -0.00003505
98 1 36.777105 34.807189 31.353954 0.00406240 -0.02808060 0.04577572 0.00012139 0.00001433 -0.00007929
99 1 10.191144 8.295023 35.992331 -0.02236713 0.01498730 -0.07329398 -0.00009492 -0.00004764 -0.00004391
100 1 22.113754 10.572237 27.597731 -0.04963489 -0.02124879 0.01532118 -0.00002582 0.00023429 0.00003842
101 1 35.971623 32.533263 35.506369 -0.01666128 -0.05309087 0.00708977 0.00004385 0.00012879 0.00007628
102 1 24.750820 2.420148 27.808618 0.03084599 0.01221136 0.01389876 0.00029473 -0.00021768 0.00024479
103 1 7.825900 0.071741 7.547581 -0.02262973 -0.04605241 -0.01852684 -0.00005493 -0.00004012 -0.00007609
104 1 6.778351 32.942381 34.077271 0.05514294 0.04667732 -0.05263709 0.00015399 -0.00006742 -0.00009301
105 1 1.231753 34.173991 14.395280 0.00262051 -0.03304073 -0.00662722 -0.00008353 -0.00010442 -0.00028000
106 1 35.339187 13.756453 31.284090 0.03373345 -0.00358664 -0.00111722 -0.00457593 0.00274621 -0.00031688
107 1 15.403192 33.653488 18.563966 0.03166035 0.01119648 0.01465802 0.00004008 -0.00008498 -0.00009596
108 1 20.533979 31.854809 19.458362 0.00314354 -0.01193153 0.03339075 -0.00012635 0.00000709 -0.00003788
109 1 16.626326 3.472869 28.110452 -0.02710720 0.00100553 -0.03447381 55510498.44029621 55552025.77079538 103067813.35317394
110 1 16.892636 28.786236 18.937907 0.00838279 0.04636867 -0.01095413 -0.00004028 -0.00005698 0.00023220
111 1 12.638920 29.989060 30.047970 -0.00590375 -0.06350805 0.02602398 -0.00002013 -0.00003518 -0.00007659
112 1 26.687982 0.794150 32.398701 0.01165758 0.03370826 0.02183945 0.00000616 -0.00000815 0.00018515
113 1 16.028358 22.053452 31.349178 0.02197507 0.04364857 0.02711849 0.00011630 -0.00002592 -0.00008561
114 1 16.116392 14.063723 36.269622 -0.00866750 0.00233153 0.00347841 0.00002161 -0.00020039 0.00001378
115 1 23.640844 32.907187 22.326367 -0.00209023 -0.01735240 0.00794325 -0.00001236 0.00010308 0.00015593
116 1 0.124417 9.954792 37.976909 0.00380968 -0.05165161 -0.01482033 0.00013061 0.00019695 0.00016921
117 1 19.733315 9.630181 37.717568 0.00030495 0.01408191 0.00019457 -0.00004808 0.00001755 -0.00004158
118 1 4.862376 11.137489 37.707553 -0.04222934 -0.01084463 0.03192240 0.00005176 -0.00016010 -0.00008345
119 1 12.974369 18.697634 33.134340 0.01912751 0.02547547 -0.03729582 -0.00013321 0.00000570 0.00011982
120 1 21.834208 30.868977 19.403934 -0.00488898 0.03249913 -0.08149978 -0.00004382 0.00015120 0.00010693
121 1 14.721488 25.516102 19.312973 0.01178341 0.01560158 -0.00646698 0.00231056 0.00098940 0.00043793
122 1 15.885828 16.516853 7.995933 -0.00858715 -0.01532340 0.03268483 -0.00005127 -0.00008338 -0.00006266
123 1 20.182238 16.787677 28.903835 0.00919595 -0.05481189 0.02406823 0.00021441 0.00008339 0.00002259
124 1 39.339020 3.771599 8.671267 0.03745869 -0.03128594 0.03468774 -0.00001740 0.00013087 -0.00004008
125 1 24.595105 17.871383 20.249697 0.02957891 0.05571210 -0.00923036 -0.00001185 -0.00005738 -0.00016176
126 1 16.772106 15.393295 15.025194 -0.00759244 -0.05496430 0.04274753 -0.00006789 0.00012166 -0.00026594
127 1 2.489030 37.123183 22.361975 0.01291073 -0.05978169 -0.04603860 -0.00017530 0.00006740 0.00054634
128 1 10.970115 22.171392 21.583023 0.03950435 0.03785874 0.02335332 -0.00049026 -0.00197690 0.00170538
129 1 4.970640 14.812028 23.254282 -0.02066834 0.03909060 0.00361788 -0.00009544 0.00003326 0.00003924
130 1 32.789550 23.635309 30.824388 0.00168114 0.00116687 -0.00749482 11.43674194 26.19953901 -4.91782479
131 1 12.948906 20.554078 20.660969 -0.00795778 -0.01003956 -0.00122580 0.00006313 -0.00061198 0.00023542
132 1 21.000377 21.608354 28.318406 -0.02267778 -0.03721041 0.00541478 -0.00008387 -0.00005134 0.00010275
133 1 14.603947 28.606035 10.598560 0.01336059 0.02863243 -0.00970036 -0.00021574 -0.00081305 0.00061251
134 1 20.351250 5.719088 36.727688 -0.04881698 0.00170935 0.00906348 -0.00015843 -0.00001945 -0.00007285
135 1 6.773981 21.332952 8.214901 -0.01875322 -0.03762254 -0.01307388 0.00010365 -0.00013942 0.00011556
136 1 29.737026 8.388682 36.759114 -0.04227036 -0.05195789 0.01650009 -5067.48474338 3958.23890762 4448.39830891
137 1 20.066938 37.086844 36.191407 -0.01652433 0.02449727 -0.04401562 -0.00007185 -0.00006478 0.00003302
138 1 31.774442 18.332488 19.402948 0.01358185 -0.02714523 -0.02518752 -0.00009726 -0.00010172 0.00009677
139 1 35.539917 32.576175 23.373715 -0.01563983 0.00167748 0.00736901 -0.00001386 -0.00015435 -0.00010383
140 1 21.961376 10.368471 5.095035 -0.03134823 -0.05258658 -0.05645348 -0.00001220 0.00005057 0.00014551
141 1 27.471916 17.502984 19.198883 0.02131285 0.01644794 -0.00288351 0.00015657 -0.00000857 0.00007524
142 1 17.755090 13.884019 19.391417 -0.02119929 -0.03267840 -0.02331517 52.64441178 45.22099825 37.68849205
143 1 12.909503 11.211793 9.664901 0.03011712 0.00513011 -0.00412802 -0.00006473 0.00008956 0.00001637
144 1 32.067795 35.130192 31.118706 0.03514286 0.03005613 -0.04211754 0.00007664 -0.00012956 0.00005502
145 1 2.710958 37.910418 10.115720 -0.00034348 0.02030011 0.02649798 492400.94291616 -186829.01803663 1822228.58567797
146 1 17.753279 25.556665 37.487298 0.02515955 -0.00492729 0.00701678 0.00020689 0.00004813 -0.00007514
147 1 17.878161 18.956920 5.493237 0.02321819 -0.01760983 0.00209158 5400.86383758 1707.23887837 5049.57245690
148 1 17.510091 12.819553 3.966393 0.01461833 0.00664608 -0.01965827 0.00013006 -0.00009660 -0.00011336
149 1 24.170878 0.683314 3.053528 0.00097843 -0.01067717 -0.00769641 -0.00023495 -0.00001238 -0.00003588
150 1 12.533467 30.754521 26.008881 -0.00109842 0.00949208 0.03126146 -0.00000644 0.00001690 0.00001188
151 1 8.559511 1.174278 21.800212 0.00786068 0.00217732 -0.03651917 -39549473.58998290 -22794230.77274339 35882222.45021019
152 1 22.360348 17.340382 7.262602 -0.02135257 -0.00127450 0.00602648 0.00033184 -0.00015013 0.00023961
153 1 22.370632 24.423739 16.572553 0.00982276 0.04349946 -0.01236315 -0.00199938 0.01215727 -0.02578574
154 1 1.169325 12.198094 25.224819 0.02650036 0.05230465 -0.01816547 0.00016824 -0.00010909 0.00004344
155 1 29.498662 10.853057 19.257305 -0.01697020 0.04186410 0.02271104 0.00068440 -0.00032513 -0.00135204
156 1 38.289268 2.924352 11.692291 -0.01591422 -0.00802603 0.04326778 0.00033115 0.00024801 -0.00051115
157 1 10.066051 37.351401 39.133645 -0.02297306 0.01345752 -0.03542546 -0.00014586 -0.00003212 0.00007366
158 1 6.013028 2.066045 1.255770 -0.01375436 -0.00147569 0.01870354 43.22451738 -93.41159432 -149.92936852
159 1 18.819406 3.979968 6.458475 -0.00867741 0.01192612 0.05059474 -0.00012545 0.00016518 -0.00003546
160 1 17.186273 2.820950 26.661281 -0.01404380 -0.00874624 -0.04465540 -12.30827024 14.33004825 31.85498753
161 1 16.858921 36.683843 18.940560 0.03818605 0.00203812 -0.02994843 0.00008650 -0.00019212 -0.00002249
162 1 28.481122 9.846625 21.277021 0.01292673 -0.03213695 0.03325020 -0.54896463 1.89341357 0.65029976
163 1 4.114200 39.069871 11.331435 0.00463954 0.00009440 -0.00296617 -0.71703982 -0.59241978 -0.62108336
164 1 25.637888 30.438313 21.492634 -0.01581967 0.02762652 0.00545715 -0.00002663 -0.00004034 -0.00005611
165 1 10.210986 3.662923 33.077614 0.02745459 0.05795482 0.03024315 0.00001084 0.00003735 -0.00013633
166 1 30.227596 4.986004 0.110043 0.01782404 -0.00567247 -0.02998196 0.00019806 -0.00028963 -0.00045733
167 1 29.808218 34.569097 18.409752 -0.00480407 0.02980810 0.00016537 0.00005403 -0.00003482 -0.00001986
168 1 35.580923 26.722240 19.418241 0.01068442 -0.01205372 -0.00348724 0.00006004 0.00013051 -0.00022469
169 1 16.440126 19.493576 38.314713 -0.03574994 0.00630104 0.01772595 0.00014721 -0.00003277 0.00005305
170 1 24.772794 10.477823 21.353134 0.03067719 0.02938015 -0.03327822 -0.00231434 -0.00084532 -0.00052544
171 1 24.745079 26.319040 34.293922 0.02580239 -0.00651158 -0.01792645 -0.00005560 0.00015591 0.00011956
172 1 38.136785 31.160119 4.895402 -0.02280102 -0.03307646 0.00216106 0.00000655 -0.00021748 -0.00009954
173 1 11.258527 16.603251 5.546431 0.03834525 0.04270327 -0.03029023 -0.00024120 0.00015800 0.00027190
174 1 33.667580 36.549479 33.049547 -0.01283434 0.03048883 -0.00741493 -0.00000119 -0.00021031 -0.00014970
175 1 23.455265 8.619067 23.728986 0.00799047 0.01211822 0.01289702 -0.00482848 -0.02642853 0.01161536
176 1 8.158425 7.544164 9.476830 0.03759344 0.00022804 0.01805889 -0.00010400 0.00000005 -0.00010973
177 1 10.218307 8.246629 23.936235 -0.01539220 -0.03762326 -0.00313444 -0.00005212 -0.00003004 -0.00000163
178 1 33.106749 17.916329 0.200545 0.03009186 0.03337084 -0.00017633 0.00008603 -0.00000453 0.00018400
179 1 7.637703 32.078370 16.817829 0.00449981 0.01864300 -0.02799835 0.00047948 -0.00046371 -0.00037707
180 1 16.418339 30.629968 33.652387 -0.00227108 -0.02021938 -0.01344078 0.00003525 0.00006299 -0.00018601
181 1 2.861155 23.158269 24.740267 0.01632397 0.03847121 -0.00518360 -0.00008149 -0.00000808 0.00002545
182 1 28.499421 38.764662 36.588864 0.00315458 0.02639931 0.00127306 0.00002570 0.00005218 -0.00008316
183 1 28.851913 34.495932 35.578294 0.02101648 -0.05381790 -0.05399697 0.00010297 -0.00030142 0.00002322
184 1 20.060172 20.607387 25.561582 0.01845564 0.00539348 0.02563358 0.00009816 0.00012330 -0.00002176
185 1 35.095536 25.779647 22.012319 -0.03527054 -0.02857319 -0.03673235 -0.00006715 -0.00007473 -0.00005272
186 1 30.878224 34.600412 0.358674 -0.00157243 0.01835781 -0.01443623 0.00008532 0.00008188 0.00002158
187 1 9.508770 31.618343 25.455221 0.01814958 -0.03315877 -0.01767317 -0.00004861 0.00006166 0.00013414
188 1 24.176171 0.764915 29.345826 -0.00710498 0.00313438 -0.01158248 0.00010005 0.00005056 -0.00022098
189 1 3.557020 16.906009 27.778974 -0.03193705 -0.02863794 -0.09366118 -0.00014209 0.00016679 0.00009340
190 1 0.589532 14.991442 31.055380 0.06484052 0.00105626 0.01349682 0.00043388 -0.00031457 -0.00028219
191 1 5.882946 8.049248 0.707080 -0.05402349 0.02403656 0.01426937 0.00007354 0.00021846 0.00004524
192 1 2.524255 16.891564 22.264399 0.00208422 -0.03567972 0.00325220 -0.00012061 -0.00003412 0.00016097
193 1 1.696419 17.060886 4.496207 -0.00943199 0.04927666 0.02392193 0.00020007 -0.00005593 0.00006349
194 1 23.275674 35.780383 38.943336 0.04984412 -0.03796393 -0.01952772 306.23055744 -317.38359324 9.25205090
195 1 22.204530 30.991805 32.561268 -0.03770337 -0.02692751 0.02150176 -0.00000701 -0.00007869 -0.00004126
196 1 16.580246 28.478577 10.170238 0.02162877 -0.01404690 -0.02710203 0.00053637 -0.00110577 0.00075842
197 1 7.831527 31.535649 34.589028 -0.05000116 -0.03055627 0.00005531 -0.00005510 -0.00013941 0.00007741
198 1 35.352169 10.751401 29.882102 -0.01799056 -0.01631411 -0.00429570 0.00006199 -0.00021367 -0.00018733
199 1 26.332051 19.069484 39.051394 -0.01487559 -0.00842183 0.02849129 0.00001081 -0.00004459 -0.00004648
200 1 15.971946 36.380743 9.415578 -0.03721192 0.04529648 0.02519710 0.00007108 0.00041890 0.00006607
201 1 6.782182 35.033830 20.256333 0.02236405 0.00007644 -0.05325613 -0.01163887 0.00266075 -0.00972000
202 1 31.137489 9.673468 29.911836 0.00029016 0.03323094 -0.00376557 -0.00005602 -0.00011604 -0.00017147
203 1 28.515996 28.527108 27.419733 0.01278545 0.00427359 0.00906388 0.00002892 -0.00005720 -0.00003523
204 1 34.086420 38.899583 36.406846 -0.03194867 -0.05529338 0.02286132 0.00001274 0.00003869 -0.00011006
205 1 37.240500 33.612284 25.687737 -0.05202758 0.01536042 0.03949136 -0.00003491 -0.00013178 0.00001036
206 1 26.415964 38.840482 7.648821 -0.03370731 -0.04496773 0.04286359 0.00015649 -0.00009421 -0.00013354
207 1 5.845724 23.045197 39.139315 0.01373948 -0.01155097 0.03668071 -0.00005790 -0.00003886 0.00002310
208 1 23.114665 27.118098 33.517681 0.00243065 0.02595925 0.01628159 -0.00019013 -0.00008282 -0.00004689
209 1 0.740711 31.759272 19.282172 -0.03514693 0.00978735 -0.01110411 -0.00017460 -0.00005540 0.00006521
210 1 26.975448 20.690781 36.934341 -0.01123733 0.04650270 -0.00247332 0.00000945 0.00009161 0.00002140
211 1 4.613758 14.567197 22.943119 -0.03096617 -0.00944914 0.02668459 -0.00010107 0.00004142 0.00003587
212 1 15.449258 7.898496 22.836600 0.05094886 -0.03072541 -0.01485474 -0.00006708 -0.00023562 -0.00016329
213 1 33.872654 35.269467 16.590992 -0.01033420 -0.00925476 -0.03078971 -0.00000736 0.00000627 -0.00001762
214 1 6.610968 38.298930 22.420654 -0.01575323 0.01054569 -0.02360134 0.00247961 0.00296609 -0.00061469
215 1 13.936396 20.799615 23.547740 -0.00079036 -0.02086646 0.01647928 0.00017221 -0.00005105 0.00010881
216 1 35.900957 37.631761 13.502884 0.03509178 0.04280820 -0.00434455 0.00003984 -0.00063957 -0.00028239
217 1 14.869277 22.868624 18.769109 0.00834513 0.00609078 -0.01912318 0.00036125 -0.00086356 0.00179127
218 1 4.329868 18.135035 14.387511 -0.03477225 -0.04523212 -0.01949975 0.00009977 -0.00012707 -0.00001909
219 1 33.553653 36.646754 19.846368 0.05072133 0.00907849 0.02377199 0.00011619 -0.00001492 0.00016124
220 1 26.984696 3.408100 12.279545 -0.03424516 0.01406473 -0.00438353 -0.00008255 0.00001500 -0.00008783
221 1 33.418730 34.751435 33.535678 -0.01476168 -0.01958124 0.00696000 0.00002887 -0.00011394 0.00000052
222 1 33.706285 35.551488 32.939139 -0.03683360 -0.01656869 0.01231490 0.00002934 -0.00004196 -0.00014647
223 1 23.140649 19.168738 16.615743 0.04262324 -0.03117475 -0.01178234 0.00007129 0.00002517 -0.00000021
224 1 27.023832 12.900141 22.136255 -0.06830147 -0.04652187 -0.00198941 131.75863290 -166.92935169 -29.70533331
225 1 32.296237 33.138224 13.637885 0.02800850 0.02896346 0.02110125 0.00005267 0.00000324 0.00003990
226 1 1.422275 28.545590 31.245950 -0.02670803 0.02132696 -0.02137514 -0.00002365 0.00012732 -0.00000257
227 1 17.609340 12.445298 18.628935 0.05343729 0.01521512 -0.01157300 2.67340655 49.38861518 27.49146720
228 1 29.893147 12.961974 0.031910 0.00860326 0.02887818 -0.02850044 0.00021627 0.00026017 0.00008477
229 1 10.296688 24.522943 10.658920 -0.01015761 -0.02358871 0.04208605 0.00009152 -0.00012288 0.00003670
230 1 37.433876 13.845253 20.015670 0.00797235 -0.00196484 -0.03750493 0.00006290 0.00010046 -0.00000599
231 1 17.569217 38.609476 22.533101 -0.00671414 -0.02916981 -0.00424043 -0.00001573 0.00015208 -0.00000091
232 1 7.166473 1.255823 0.574157 -0.02390261 0.01322884 0.00715811 -71.37597079 50.13700782 42.17881082
233 1 14.538838 12.950675 24.804175 0.08241441 0.01826278 -0.05874098 -0.00017726 0.00016153 0.00029852
234 1 14.249969 24.751181 19.050303 0.01416424 -0.00765010 0.01375313 -0.01889189 0.00065448 0.00240223
235 1 21.665695 13.433177 10.135528 0.00038129 0.01757162 0.01123439 -647.25079480 -452.85821389 -1125.73222207
236 1 6.279521 13.764542 15.077518 0.03485992 -0.00427581 0.00574440 -0.00015970 -0.00003336 -0.00003552
237 1 6.446789 24.828299 16.467801 -0.02421659 -0.03358444 0.02344578 273.78571024 -38.28191275 18.22767273
238 1 13.857241 25.428355 12.634158 -0.02094458 0.05297153 -0.03766165 -0.00004127 0.00027599 -0.00032271
239 1 26.494165 6.244199 8.734588 0.01458816 0.01540253 -0.04776463 0.00097320 0.00033016 -0.00121366
240 1 17.083394 32.685008 1.258311 -0.01207646 -0.04907070 0.01002427 0.00017504 -0.00011104 -0.00001148
241 1 4.023388 22.178958 0.567576 -0.04764744 0.04159208 0.02862629 -0.00012668 -0.00009070 0.00007345
242 1 30.516044 10.582596 31.338296 0.01892668 -0.01131732 0.02203928 -0.00006069 -0.00022955 -0.00016491
243 1 38.526524 27.780961 35.100263 0.03422534 0.02352617 0.00374903 0.00017672 -0.00004814 -0.00024020
244 1 17.223740 7.936240 4.239306 -0.02539177 0.01563216 0.05338928 -0.00000963 -0.00025585 0.00014266
245 1 11.144710 12.148656 9.855687 0.04088405 -0.04134007 0.01060168 -0.00003030 0.00007610 -0.00006025
246 1 21.570157 11.574863 30.809007 0.04302648 0.04751014 -0.00337014 31562.57515239 -8320.26647920 -51805.38417545
247 1 31.275800 20.059351 8.891649 -0.08656837 0.01802860 -0.00581747 -1.15240234 -21.96027447 5.30146430
248 1 13.979751 28.698367 22.414400 0.03239145 0.01739706 0.01518112 0.00011966 0.00008143 -0.00005660
249 1 0.806006 6.085841 14.580226 0.03619235 -0.01950474 -0.01081922 0.00014119 0.00012237 0.00003110
250 1 1.633903 17.371450 12.443600 -0.01329850 0.02548101 0.01110278 0.00005980 0.00002123 0.00008753
251 1 35.204169 19.616704 25.465568 -0.02046224 -0.03936694 -0.01563629 -0.00007447 -0.00010049 -0.00018144
252 1 28.121848 28.310933 27.457250 0.03742235 0.00995164 0.01706802 -0.00013835 0.00012291 -0.00009819
253 1 18.750917 0.383901 15.259799 0.05210381 -0.01048660 -0.02440549 0.00002475 0.00005178 0.00009819
254 1 3.271544 25.565499 32.306366 0.02585202 0.03008487 -0.01311522 0.00003809 -0.00005355 -0.00011184
255 1 8.081311 25.377495 19.603247 0.02092103 0.00329949 -0.04890261 -0.00138620 0.00094332 0.00241415
256 1 9.813002 24.643562 33.312682 -0.07656132 0.00073278 -0.03308327 -0.00005102 0.00002824 -0.00001539
257 1 23.147053 22.286398 6.207274 0.02150470 -0.02829754 -0.01887831 0.00014520 0.00013900 0.00000189
258 1 14.657279 21.903602 32.843556 0.02760232 -0.02444270 -0.02500940 0.00012184 -0.00009419 -0.00000556
259 1 28.525182 2.129594 15.688549 0.02916025 -0.04025031 -0.02566529 -0.00002664 0.00000303 0.00007789
260 1 27.536818 24.237825 5.985811 -0.04902399 0.00962268 0.01167407 -0.00008553 0.00007259 -0.00014888
261 1 19.272175 3.453021 12.299187 0.02615329 0.01603668 -0.03084825 -0.00022056 0.00002547 0.00014393
262 1 9.870885 21.841089 33.244185 0.01318398 -0.02474876 0.01146120 -0.00009351 -0.00000880 0.00010638
263 1 5.404911 17.319936 36.175242 -0.04397933 -0.05436293 0.01336174 -0.00009174 0.00003906 -0.00003116
264 1 31.919654 2.951445 10.974301 0.01607323 0.00993380 -0.00220005 -0.00016872 0.00023902 0.00056137
265 1 23.673754 19.447843 23.015557 -0.02717870 -0.01126947 -0.06862228 -0.00008338 -0.00024194 0.00003665
266 1 19.904469 27.222021 14.158851 0.00886796 0.00364584 0.01440944 0.02460242 -0.01763934 -0.00135194
267 1 3.283221 12.828425 35.210192 0.03848159 0.03151956 -0.00112351 -0.00002883 -0.00009279 0.00006041
268 1 1.391800 36.671004 11.380599 -0.01062383 -0.01724977 -0.01365252 0.59193258 0.55636522 -0.56752650
269 1 19.129099 25.760062 20.849570 -0.02195583 0.05106560 0.02956676 0.00002603 0.00014252 -0.00003594
270 1 31.232646 17.972714 34.321549 -0.04694592 -0.01577367 0.01476901 -0.00061527 0.00058877 0.00080622
271 1 11.153796 29.697440 4.524548 0.01082095 0.01260168 0.02939628 -0.00012902 -0.00003963 -0.00008949
272 1 6.396404 9.004340 21.302462 0.01401975 -0.02657424 0.02254698 0.00010153 0.00015681 0.00002201
273 1 33.358590 23.123586 34.006468 0.01693471 0.01134223 0.02425533 0.00031357 -0.00014687 0.00200121
274 1 29.898900 15.038148 32.493738 -0.04705597 -0.00898930 -0.02737085 -0.00208083 -0.00043755 0.00087993
275 1 28.594720 28.954844 0.855728 -0.00731945 0.03440698 -0.01678388 -0.00015075 0.00000329 -0.00003964
276 1 8.786985 23.892389 24.568105 -0.00048336 0.02657032 0.01508465 0.00012589 -0.00004992 0.00019708
277 1 14.263993 15.496037 29.027522 0.03935950 0.03076603 -0.01300003 -0.00001158 0.00018937 0.00014067
278 1 37.965905 8.466953 12.606464 0.02477134 -0.01386976 0.00333258 0.00007349 -0.00026690 -0.00001988
279 1 20.876896 17.621803 4.099800 -0.01015194 -0.05088987 0.00987920 56.34685299 -98.16182066 58.36549055
280 1 7.293562 2.042226 18.270016 0.02557234 0.00291787 0.00256944 -0.00074248 0.00050528 -0.00185382
281 1 9.984058 18.532172 13.005517 0.00970508 -0.01240411 -0.01000582 -0.00016539 -0.00013180 -0.00009277
282 1 16.852752 3.699986 28.531941 0.00656183 -0.00651909 0.01528545 -55412977.63742722 -55582163.04645295 -103150699.28794667
283 1 16.868314 35.747375 27.081642 0.02333429 -0.03278515 -0.01353330 0.00003107 -0.00008944 0.00003276
284 1 23.837734 6.347116 38.803919 -0.05491710 0.00615165 -0.02727943 -0.00016436 -0.00007945 -0.00005219