ITEM: TIMESTEP
0
ITEM: NUMBER OF ATOMS
2407
ITEM: BOX BOUNDS pp pp pp
0.0 33.117873
0.0 33.117873
0.0 33.117873
ITEM: ATOMS id type x y z vx vy vz fx fy fz
1 1 21.592542 24.490354 31.377862 0.02533505 0.01314256 0.00346296 -0.00012079 -0.00014170 -0.00020119
2 1 18.869471 6.529758 4.032956 0.03673880 0.02439866 0.01423974 -0.00019146 -0.00016541 -0.00005167
3 1 10.844855 19.935734 6.570556 0.00451219 0.00719598 0.00284982 0.00008162 -0.00006310 0.00001556
4 1 12.070996 13.351612 2.111079 0.03973955 0.02159671 -0.05246328 1758.32646130 -692.47576528 -628.74853454
5 1 27.295864 24.430699 20.454866 0.02139048 -0.03313026 -0.02123023 48762912.74918622 -125760165.55414085 40302897.27462385
6 1 0.301419 29.407258 0.522491 -0.01056197 0.01760408 0.06232491 -0.00007164 -0.00004502 0.00001189
7 1 12.870226 29.660110 2.378113 -0.07160664 -0.02173724 0.01646132 0.00009397 -0.00023505 -0.00001500
8 1 11.285353 8.503381 0.681875 0.01888605 -0.02604451 -0.01692603 0.00007665 -0.00015209 -0.00004921
9 1 0.751674 22.692930 1.298619 -0.05145708 -0.03744245 -0.01450421 0.00003792 0.00009946 -0.00000240
10 1 9.693691 27.767605 15.070783 0.00783308 0.00263083 0.03002374 -0.00003262 0.00005678 -0.00030513
11 1 12.855945 1.613230 0.496516 0.03220996 0.03473898 -0.03392425 0.00005532 0.00001394 -0.00001503
12 1 28.827564 24.543631 29.528807 0.00136505 -0.02385300 -0.02851856 -0.00004205 -0.00008112 -0.00001010
13 1 20.435649 19.511520 6.540136 -0.01788762 -0.01441349 0.01081670 -0.00017193 0.00002515 -0.00004003
14 1 7.702534 25.482746 32.687572 -0.00698082 0.02025018 0.01186817 -0.00007696 -0.00018194 -0.00009352
15 1 26.971875 3.325258 24.622787 0.02606616 0.01501814 -0.00686229 0.00019082 -0.00003287 0.00013211
16 1 16.131389 19.912390 9.054476 -0.01163641 0.02279902 0.05047196 0.00012414 -0.00009141 0.00008630
17 1 13.126089 4.558767 27.893023 -0.02070103 -0.02126927 -0.01544199 0.00017951 -0.00002344 -0.00022666
18 1 12.229138 10.667736 10.781309 0.01320689 0.01507250 -0.01117460 0.00004129 -0.00000276 0.00005707
19 1 30.801118 10.935312 22.828091 0.02130831 0.01750809 0.00678476 0.00001302 0.00013544 0.00007045
20 1 30.133186 14.861232 32.080458 -0.00110187 0.00609008 0.04035357 -0.00018311 -0.00003417 -0.00002978
21 1 22.128636 6.122140 1.643851 -0.05139106 -0.03998889 -0.03961849 -0.00002636 0.00004970 -0.00006310
22 1 3.916658 32.063972 16.496717 0.00006741 -0.01388845 0.00365780 -0.00001089 0.00002058 0.00000645
23 1 23.009491 10.166330 14.267785 -0.00275394 -0.02846809 0.04869021 0.00001770 -0.00018584 -0.00015535
24 1 26.237401 13.860674 2.173971 0.00577903 0.03684523 0.01512238 0.00012999 -0.00012562 -0.00011238
25 1 29.500383 20.381839 19.974543 0.00303340 -0.00766240 0.00116127 0.00041473 -0.00051156 -0.00014458
26 1 13.211892 11.634144 2.941071 -0.02769182 -0.03102035 -0.04729702 -0.46484890 0.69972037 -0.33800885
27 1 32.413207 19.762277 13.540304 0.00486790 0.02175278 -0.00088543 207.34858807 318.57906072 559.30513068
28 1 11.704491 1.205095 31.131687 -0.00290108 -0.00262510 0.02094657 0.00003485 0.00001108 0.00008378
29 1 18.887869 1.753239 26.140383 0.00322639 -0.01870134 -0.02259959 -0.00004363 -0.00008519 0.00002673
30 1 5.090433 4.385313 0.902060 0.01700915 0.02115018 -0.02713742 0.18582376 -0.00918402 0.19150950
31 1 4.142349 31.202084 22.693275 -0.04885411 -0.04511582 -0.03323394 0.00005369 0.00018441 -0.00004110
32 1 13.937196 15.678670 29.330886 -0.01810241 0.02857009 0.03685667 -13.78104506 -11.89690391 -6.43947987
33 1 2.275660 15.275435 22.095823 0.03213616 -0.01690261 0.04913059 0.00009977 0.00012380 0.00014362
34 1 0.684975 29.128353 10.684973 0.08992811 0.00028992 0.01673208 0.00005584 -0.00008428 0.00026374
35 1 6.536910 26.567864 7.497352 -0.01219095 0.02695898 -0.00014772 -70.14415959 105.04177206 179.40479293
36 1 16.871937 4.553360 21.755105 0.01226102 0.02569228 -0.02234031 0.00005226 0.00004138 -0.00010261
37 1 2.617016 3.755153 1.254948 0.02498911 -0.00617744 0.01701037 0.10138302 0.02568549 -0.01449950
38 1 15.795637 25.976008 0.994422 0.04176203 0.01387928 -0.05823679 -0.00022238 0.00000751 0.00001314
39 1 30.716337 21.193470 9.510353 0.00558994 -0.03592672 -0.01266434 -0.00024407 0.00020774 -0.00087290
40 1 29.449174 0.207406 25.377762 0.05285662 -0.01150756 -0.00163017 -0.00009359 -0.00005379 -0.00009817
41 1 29.927971 9.629338 23.629110 -0.05330237 0.04405980 -0.00839331 0.00004606 -0.00009045 -0.00009554
42 1 3.477188 30.441535 10.482216 -0.00303623 0.03056083 -0.01977460 -0.00005949 0.00003115 0.00020948
43 1 8.715730 12.100870 13.232052 0.01970423 -0.04746482 0.00108464 0.00012629 -0.00010354 0.00026177
44 1 27.664309 30.164061 30.582701 -0.01701799 -0.02459316 0.01954779 -0.00018488 0.00014786 -0.00009263
45 1 0.899742 7.134554 6.011925 -0.03745083 -0.00475704 -0.01535446 0.00007415 -0.00009147 0.00004957
46 1 8.842489 27.654965 2.991391 0.01964222 0.00169131 0.02220461 0.00007846 0.00004070 -0.00022947
47 1 19.115065 20.727173 20.965810 -0.00531385 0.02071122 0.01060927 -0.00001806 -0.00006282 -0.00001751
48 1 2.246129 6.508059 12.814969 0.03239980 -0.00166574 -0.00481455 -0.00003899 -0.00000243 -0.00012380
49 1 2.086943 22.197978 0.459867 -0.02525127 -0.03716601 -0.04191451 -183.32823663 19.95319149 20.72262411
50 1 15.530758 19.088482 10.653687 -0.04680638 -0.00176867 0.06053861 -0.00001774 0.00003314 0.00006307
51 1 23.423032 31.136340 32.714206 0.06541976 -0.00400740 0.01398409 -0.00021714 0.00002468 -0.00007009
52 1 2.987708 5.386701 29.305080 -0.00159395 -0.01200606 0.01957008 -0.00005598 -0.00008882 -0.00013801
53 1 16.826297 33.079134 10.478971 -0.08955975 0.01004640 0.03676192 -33589.92231195 4525.05502682 2417.77163645
54 1 31.264522 11.805198 23.780285 -0.01963771 -0.01399375 0.00220213 -0.00016608 0.00001720 0.00009626
55 1 18.665682 13.957830 10.141235 0.02997442 0.00284417 0.04438068 -0.46492355 -1.06186173 -1.03305019
56 1 11.828240 31.260484 33.059882 -0.01225672 -0.05506560 0.01126986 -296717340.65811706 -102726916.14838266 249984960.52253044
57 1 20.134081 21.891498 14.885788 -0.01807685 0.05926241 -0.02186357 -0.00025309 -0.00004373 -0.00004195
58 1 5.181457 1.431222 20.338079 0.02873356 -0.02104166 -0.10337509 5.50296270 -3.97087435 65.39862397
59 1 30.231653 22.668427 10.398929 0.01625618 -0.01421656 0.07035031 -6626.52363573 -58025.02621924 45019.55407210
60 1 23.806029 3.116957 8.325768 0.03522054 -0.00121075 0.02039193 0.35619960 1.11213516 0.80844082
61 1 4.345717 24.835495 13.057906 0.01232234 0.02743309 0.04960609 -0.00015642 -0.00000590 0.00006813
62 1 15.099334 31.327179 11.184413 -0.02001695 -0.04603706 -0.08314611 0.07923462 0.08027188 -0.03255385
63 1 14.662867 29.595480 25.980786 -0.02656123 0.03175309 0.02864254 0.00005832 -0.00005452 -0.00015483
64 1 26.374428 27.564831 5.325489 -0.00122774 0.03482991 0.01620211 -0.00013943 -0.00014489 -0.00013162
65 1 2.144032 11.663563 1.282826 0.01320303 0.02693163 0.01915517 -0.00017086 -0.00003722 0.00002859
66 1 4.337668 14.059439 18.802673 -0.05931290 -0.03256564 -0.01970683 -0.00013460 -0.00008180 -0.00009288
67 1 11.965265 22.469390 3.233674 -0.02565473 -0.03332459 0.00215782 -0.00011987 0.00007760 -0.00003874
68 1 26.204330 10.215077 0.589439 -0.01979848 -0.00657648 0.01327762 3855364.19928604 1581747.10912806 3397233.97534738
69 1 15.314101 29.547381 17.685424 0.00127351 -0.04299365 -0.07375477 0.00007948 -0.00001888 0.00012152
70 1 9.282815 14.300748 21.256700 -0.05803484 -0.00285829 0.02141419 0.00013575 0.00003227 -0.00009580
71 1 12.002525 1.619222 3.558487 0.02453133 0.00889356 0.02495890 -0.00008045 0.00039491 0.00026742
72 1 13.550113 27.993644 9.243755 0.01018452 -0.04153022 -0.03282110 -0.00017399 -0.00023543 0.00006949
73 1 13.626921 18.347459 6.051283 -0.03736121 0.00494824 -0.03747639 -0.00010840 -0.00005762 0.00001760
74 1 1.823196 2.168343 2.916395 0.03419911 0.03198505 0.00799101 -0.00072084 -0.00049467 0.00042031
75 1 10.602292 32.858071 24.262825 -0.02440864 0.04257123 -0.00603609 0.00001315 -0.00010484 0.00024361
76 1 9.256068 9.582724 6.836565 0.00165271 -0.05031032 0.02681345 0.00003283 -0.00002222 0.00001294
77 1 27.281187 20.335699 25.136329 -0.03682558 0.02472564 0.01132846 -0.00005912 -0.00016260 0.00012434
78 1 23.819194 20.813878 25.061629 0.02927085 0.03864425 -0.00829401 18.28528000 32.81932254 -24.50484326
79 1 25.758061 22.651008 28.899879 -0.00650919 0.02556897 -0.01427420 0.00020872 0.00036242 0.00041072
80 1 28.173067 18.733495 17.412111 0.00551821 0.01114273 -0.03627819 -0.00016251 -0.00015168 -0.00008635
81 1 31.759247 14.612017 8.294096 0.03057572 0.03680749 -0.01448210 -0.00014139 0.00011337 -0.00017868
82 1 3.573018 24.499853 33.112603 0.02315362 -0.04862905 -0.01931309 -0.01578042 -0.02449375 0.00500530
83 1 18.809672 9.789813 19.703496 -0.01362363 0.05240225 0.01762824 -0.00004403 0.00012047 -0.00010286
84 1 12.642297 24.385924 3.292492 0.03293141 -0.03716082 0.02351331 0.00008978 -0.00011399 0.00010050
85 1 8.088678 17.470473 29.256669 -0.01730606 -0.03210362 -0.01834468 -0.00019319 -0.00007531 -0.00000933
86 1 26.295485 26.436605 19.634027 0.01387539 -0.06316463 -0.04754837 0.13878552 -0.27794835 0.11393181
87 1 6.346330 17.967311 19.449623 0.03799950 -0.00870000 -0.01761435 4415.69710036 -17533.50317373 3733.67095149
88 1 32.845966 3.525135 7.004151 -0.03674393 0.01153868 0.04843319 -0.00002582 0.00022471 -0.00000808
89 1 18.066528 14.011917 25.066346 0.01713527 -0.00783453 0.00944500 0.00021990 -0.00002952 -0.00006806
90 1 32.969778 23.629850 27.128487 0.02824420 -0.01487257 0.01691616 -0.00005169 0.00014416 -0.00006118
91 1 27.349307 13.070750 30.452510 -0.01014525 0.02097004 -0.03136608 0.00011603 0.00045610 -0.00057551
92 1 30.169536 6.003268 28.183106 0.00595172 0.01147294 0.06006737 -818113.86470480 725002.75247916 1736617.20831265
93 1 1.657517 10.277243 26.682938 0.00845256 -0.02421573 -0.02914242 -304746.05123521 -36663.96277655 156774.66798612
94 1 30.562002 21.295846 18.441345 -0.00927324 0.01144520 -0.01119508 0.00016537 -0.00003658 0.00008180
95 1 26.324043 7.481272 20.474819 -0.00024393 0.02441848 -0.00814744 -0.00003991 0.00008701 -0.00010020
96 1 16.326825 10.890647 25.088649 -0.02107692 0.01201836 -0.05175216 0.00001812 -0.00005186 -0.00008763
97 1 10.499425 13.601711 4.968590 0.06479496 -0.03359940 0.02168352 -0.00100334 0.00005423 0.00158523
98 1 32.220052 0.743848 2.819625 0.00232808 -0.03577979 0.01729315 0.00002198 0.00010294 0.00005265
99 1 3.853845 20.432874 0.927830 -0.03249125 -0.06324525 -0.06272074 -0.09099497 0.09092850 -0.02417746
100 1 8.723556 0.706030 10.895041 -0.00389135 -0.02427807 0.04850145 -0.00006865 0.00000677 0.00003735
101 1 1.778709 13.721130 15.229902 -0.05569476 0.04483824 -0.05229426 -14845.36577339 49481.58113664 -26622.09514633
102 1 3.483862 11.430786 18.005275 -0.00047295 0.01349432 0.03144271 0.00065893 -0.00095139 0.00129554
103 1 1.106341 7.014214 13.112116 0.06183148 -0.00877930 0.01436377 0.00008430 0.00002577 -0.00005598
104 1 31.243629 4.091291 31.424259 -0.00052998 -0.00665804 0.00864650 0.00055679 -0.00087322 0.00142334
105 1 0.157590 7.892515 29.255999 0.04540296 0.01987367 -0.00096416 0.00093615 -0.00025701 0.00195933
106 1 22.630637 1.951228 13.555706 -0.00108388 0.02740245 0.02138294 0.00008843 0.00015372 0.00032320
107 1 5.103982 1.816423 9.779498 0.02413854 0.00250427 -0.00221292 -0.00012693 -0.00008304 0.00013202
108 1 12.609045 25.731907 8.802216 -0.01090322 -0.02312650 -0.01901068 0.00016195 -0.00017396 0.00000269
109 1 10.985939 28.645266 6.057318 -0.01634596 0.05838734 -0.01248590 0.00054196 0.00001429 -0.00007712
110 1 20.994419 2.357443 3.230337 -0.00006734 0.01830319 -0.04839267 -240.23390903 -39.85103756 -3032.86556096
111 1 12.141493 22.888283 8.077805 -0.00379149 0.02593686 0.00548378 0.00004957 0.00001025 0.00008098
112 1 6.549026 16.963222 19.634199 0.00763835 0.00517061 -0.00058858 -3865.05794919 19146.15033220 -3519.52950183
113 1 10.567399 29.539587 24.797551 -0.02369203 -0.01151734 0.00897085 -8133760.37970714 36569911.11788593 -24024062.25472263
114 1 31.888508 24.917956 16.385547 -0.01336272 0.02063965 0.01624179 0.00015752 0.00023394 0.00023520
115 1 25.361147 11.640069 32.766536 -0.02041665 0.01745535 -0.00934133 3.24794684 -5.48911302 3.62410539
116 1 27.807333 20.872812 8.533488 0.00201915 -0.00061620 0.00040647 2.27422397 -0.58520063 5.27431633
117 1 21.743991 7.333014 28.403630 0.00993259 0.01132676 -0.01882143 -54.56251445 -3273.49304824 -831.67349803
118 1 24.194165 2.062921 32.831073 0.02521708 -0.02539654 0.04648160 0.00040590 0.00014562 -0.00046423
119 1 24.908248 0.168998 14.205718 -0.02386661 0.07130870 0.01154140 -0.00001043 -0.00001119 0.00003091
120 1 13.179844 26.251009 20.538355 -0.05256532 0.02002259 -0.00542536 13917.87992492 181.96719769 3576.67464731
121 1 1.180142 29.350872 4.801167 0.00370353 0.02034939 -0.01406707 -0.00009410 0.00003193 0.00016798
122 1 27.677340 28.908571 23.057423 0.00857646 0.00016339 0.03813709 0.00019449 0.00034453 0.00014019
123 1 27.233464 24.058592 15.644631 0.03485014 0.03002439 0.00383109 -0.00012442 0.00017307 -0.00023960
124 1 17.643995 14.566464 23.869985 0.07944464 0.00512359 0.01806536 0.00008722 -0.00018406 0.00015839
125 1 15.522962 0.093197 30.713197 0.00477605 -0.00144519 0.01208895 0.00033616 0.00030475 -0.00021704
126 1 19.201888 1.375376 10.197899 -0.01267757 -0.01854052 0.02101300 -0.02544442 -0.01522810 0.00307289
127 1 9.921223 28.111406 2.323689 0.01319041 -0.02033736 -0.01557784 -0.00026469 -0.00065420 0.00051859
128 1 32.326366 27.943415 10.821395 -0.02368862 0.01695251 -0.04419900 -0.00004787 0.00029187 0.00018717
129 1 2.096766 8.320751 2.645301 -0.02396212 -0.04333551 0.00247675 -110608.80590792 51348.87361689 -10569.74934144
130 1 25.368624 20.003803 11.272317 0.03028526 0.02364087 0.04742910 -0.00159249 -0.00066732 0.00156427
131 1 31.418855 22.280252 0.814115 0.00328696 0.06720787 0.02036738 -0.00209216 0.00009619 -0.00004984
132 1 32.276475 10.610335 12.157525 -0.05155437 0.05096849 0.03417134 1.68968906 0.97888806 1.41022030
133 1 12.037213 30.581277 20.583070 -0.00862186 0.08559074 -0.01293520 -11.71594962 -6.52477455 17.79752089
134 1 18.334310 1.091615 11.356521 0.03841917 -0.03423961 -0.07317823 -1.64035961 -1.22980190 -0.95454496
135 1 24.570188 4.970650 12.107230 -0.01173220 -0.04243536 0.00916496 0.00029075 0.00043270 0.00087579
136 1 31.586490 26.895478 5.795153 -0.01543754 0.00062750 0.02319564 -5945.08032595 -1387.10133934 -3180.55282065
137 1 0.128425 8.859204 6.949276 -0.01098582 -0.02410897 -0.00441157 -0.00007877 0.00006453 0.00033149
138 1 26.703365 12.287228 4.434141 0.07407785 -0.02602096 0.02208258 0.00010614 0.00051748 0.00096212
139 1 30.631072 0.107978 19.474806 0.00767099 0.00504565 -0.02615843 -0.00017724 -0.00002319 0.00013187
140 1 11.942456 1.800719 29.443763 -0.03095407 0.00420808 -0.00719945 -0.00004578 0.00014404 -0.00027069
141 1 13.219467 27.850275 21.205701 -0.02658212 0.00030204 0.01747306 -0.58333619 -23.51001418 -9.81247982
142 1 7.849071 9.219087 9.312449 -0.03600999 0.00421530 0.03444758 -13.30815096 4.24864917 -33.85362717
143 1 15.915740 26.575946 13.842940 -0.03389337 -0.02731590 -0.02467744 -0.45312788 -1.42978072 -2.44707745
144 1 10.230967 26.580345 10.855888 -0.00939874 0.02670112 0.03609274 0.00025735 0.00011628 0.00021987
145 1 21.473289 26.920295 8.926685 0.01071815 0.02796960 -0.00814121 -23.08167995 165.94007257 114.03692287
146 1 2.620809 22.275683 8.622306 0.03592430 -0.00684067 -0.01688908 0.00018933 -0.00005773 0.00002212
147 1 5.907306 22.721436 13.764399 -0.01079040 -0.02091721 -0.03358113 37971.64492231 -26576.04376891 34362.56036691
148 1 32.748740 10.065356 9.986392 -0.01677462 0.04694360 -0.04556997 -0.12491822 0.14423554 0.57437106
149 1 19.217092 14.717306 0.420465 0.01512080 -0.02098463 -0.04334603 -1.11975396 -37.60213445 -335.70042360
150 1 25.354538 9.241232 11.168482 0.03500865 0.01701395 -0.00815732 -0.00009508 0.00001141 -0.00003870
151 1 6.506091 20.254410 27.977596 0.02125797 0.01863368 0.03672024 0.00001145 -0.00003831 -0.00005645
152 1 4.971572 29.082627 23.249801 -0.08197850 0.02976082 -0.00863025 -594.27453649 -449.10758608 272.62025612
153 1 8.152350 9.027291 17.562768 0.03321550 0.02735785 -0.00908384 -0.00016466 0.00007261 0.00004060
154 1 30.224584 15.384800 1.125948 -0.00232766 -0.01389501 0.02636994 0.00010597 0.00009376 -0.00002331
155 1 23.176845 13.624352 19.012187 0.01191999 -0.01486260 0.01708032 0.00016103 0.00000905 0.00004330
156 1 23.826273 14.458503 12.571414 0.02639053 0.01874363 -0.01440557 0.00016514 0.00008994 0.00004343
157 1 28.660575 4.132986 31.337875 0.00555612 0.01451026 -0.01891099 -0.00053270 -0.00077965 0.00130150
158 1 5.586746 6.141683 20.265816 0.04822198 -0.03430558 -0.01910959 -0.00001489 0.00046884 -0.00009326
159 1 7.593180 6.758930 22.520192 -0.02032942 0.02560702 -0.04497667 0.00002229 -0.00001018 0.00005952
160 1 23.650964 13.620533 14.192312 0.02083715 -0.01194427 -0.04675572 0.00001938 0.00004301 0.00013473
161 1 6.023441 16.076367 13.397145 -0.03466319 0.01589391 -0.02667545 346.08539613 -732.69399299 115.77841046
162 1 12.816466 30.665726 24.991799 0.04236075 0.00825351 0.02059921 -0.13008633 -0.06509331 -0.01040262
163 1 23.488577 10.793989 22.935874 0.02615367 0.04810801 0.01326026 0.00004968 -0.00003482 0.00013081
164 1 23.738930 2.573212 13.968070 -0.04416101 0.05911942 0.00588353 -0.00004951 -0.00013490 0.00017872
165 1 18.248312 3.830724 27.986459 0.00649229 -0.03270246 0.00297103 -0.00019406 -0.00014995 0.00005991
166 1 18.492230 16.832634 14.652962 -0.03657413 0.01658978 0.01290162 5651698.68478193 247041.33686404 2885222.03675425
167 1 27.623456 32.573784 20.732771 -0.02783420 0.03093850 -0.03917888 -0.00027720 -0.00024632 0.00015797
168 1 6.268221 8.732449 15.431166 0.00040918 -0.01926991 0.02631752 0.00016270 -0.00003130 -0.00006085
169 1 31.342282 10.154227 1.720587 0.03559636 -0.02850930 0.02871992 -0.00057690 0.00037962 -0.00014557
170 1 5.157048 15.816815 4.171323 -0.00025262 -0.00139303 -0.00034205 932.69975893 1044.12815447 194.96890473
171 1 1.262536 28.194140 24.284680 0.05327048 0.00031528 -0.00883801 -0.00174074 -0.00043364 0.00052290
172 1 29.267064 16.720430 12.891507 0.01293919 0.06013059 -0.00822944 -0.00062153 -0.00052747 -0.00016038
173 1 10.607588 19.420217 14.807409 -0.04553603 0.02348718 -0.01165134 0.00026984 -0.00011805 -0.00000560
174 1 5.777860 15.819415 31.912442 0.00100429 -0.00803021 0.03740268 -0.00012559 0.00007533 -0.00032671
175 1 32.615904 7.728867 14.894540 -0.03323572 0.02487126 -0.00377534 0.00007250 -0.00130437 0.00111805
176 1 17.739168 16.992424 9.534171 0.03449257 0.00313671 -0.00932711 -0.00042026 0.00121995 -0.00057115
177 1 19.599978 19.469310 5.752801 0.04854996 0.00132002 -0.05474062 0.00006169 -0.00000067 0.00012972
178 1 31.283206 25.021514 16.232226 -0.01521047 -0.01413040 0.02494365 -187.79929307 -67.51364138 113.25642110
179 1 28.285709 21.055537 31.085694 -0.04836889 0.00047117 0.01073045 0.00011052 0.00003202 0.00008013
180 1 3.976684 32.516259 10.760992 -0.03174322 0.04004615 -0.00612912 -0.00010177 0.00006653 -0.00002411
181 1 19.461256 26.417517 15.437492 0.04677610 -0.06610702 -0.02383875 -9225.54475898 33258.32216211 -3079.87225478
182 1 16.985826 32.959494 13.320749 0.02147892 0.05906233 -0.03275009 -190068.54732702 -5251.99923161 -300798.77241957
183 1 11.359435 10.112060 24.006478 0.01332798 0.02870942 -0.00129243 -0.00010499 -0.00009826 -0.00019296
184 1 32.100085 17.141728 0.255811 0.04041240 0.01334550 -0.02867499 -0.00025971 -0.00018271 0.00006469
185 1 2.129658 31.151267 25.225426 0.03588396 0.03574295 0.02460860 -0.00109122 0.00081701 0.00082387
186 1 24.023369 9.953163 25.805752 -0.03194310 -0.05043156 -0.01458245 0.00081743 0.00075418 -0.00061787
187 1 29.041055 20.480545 10.012502 -0.03432014 -0.00913569 -0.01423089 -2.94951190 1.08831150 -3.59674649
188 1 32.775926 4.818016 16.358890 -0.00896140 0.02428442 0.01382537 -0.00010014 -0.00004477 0.00014029
189 1 5.213982 21.442026 8.348041 -0.03919057 -0.04161931 -0.03178501 -0.00028992 -0.00011350 -0.00012611
190 1 27.598596 31.165837 22.154241 0.06387261 -0.05093230 0.02149708 0.28600557 0.07738886 -0.47616514
191 1 24.776122 7.496324 19.578490 0.02752370 0.00488435 -0.00190962 -0.00009107 -0.00016715 -0.00000463
192 1 10.913750 0.310680 7.231430 0.01836668 0.01951071 0.02927305 0.00003230 -0.00007937 0.00009620
193 1 7.352597 17.489865 1.424519 0.00235671 -0.00142763 0.04279681 10500992.78763068 -4647086.00699659 -8576927.64582991
194 1 30.384596 25.378837 13.129234 0.01551678 0.02594977 0.00533886 -0.00051839 0.00168943 -0.00015206
195 1 3.666893 32.033352 0.533301 -0.01435610 0.00703265 -0.04424396 -0.00013809 -0.00027950 0.00018340
196 1 32.583013 8.649831 7.299926 0.01021684 0.00949272 -0.01920497 -0.00012701 -0.00022915 -0.00007788
197 1 3.071121 2.202792 6.469617 -0.01200800 -0.00856516 -0.02998081 0.00003734 -0.00006086 0.00004433
198 1 4.393587 9.176905 32.469427 0.01102310 -0.00975436 0.03526398 0.00080437 0.00071217 -0.00122607
199 1 25.908004 11.774643 31.539553 0.01768847 -0.02410881 0.01766192 0.00592531 -0.03100228 0.04329915
200 1 14.716241 12.196641 16.686894 -0.00189376 0.03235630 0.03391903 -0.00001985 -0.00017842 0.00009829
201 1 3.974274 2.923321 2.902484 0.04849515 0.04091488 0.02760843 0.01824367 0.02357839 -0.03259691
202 1 22.287175 6.504744 30.118518 0.00198122 -0.03637213 -0.00627497 -1.19306023 1.81916032 -3.76654046
203 1 16.766141 29.619728 31.566305 0.05820488 -0.01636994 0.01394872 0.00023058 -0.00007922 0.00003135
204 1 23.925040 21.819693 22.744025 0.04285579 -0.02759421 0.05660594 -0.00622448 -0.05642376 0.12926871
205 1 31.869277 32.691255 26.735808 0.00626194 -0.01124711 -0.00280240 0.00005826 -0.00007363 0.00026195
206 1 23.354885 10.426762 16.886087 0.04644905 -0.02690551 0.01258323 -0.00000938 0.00000829 -0.00011477
207 1 19.190994 27.373065 15.348102 0.03275571 0.02056479 0.06176324 9409.76659224 -33269.46621848 3112.30599078
208 1 31.321384 19.170064 18.462317 0.00242496 0.02876659 -0.01382247 0.00001791 -0.00023083 0.00035743
209 1 0.637264 30.457520 27.528771 0.02015979 0.05077240 0.04701756 0.00000606 -0.00008509 -0.00014774
210 1 7.176375 10.724028 22.288627 -0.03139212 0.00847294 0.03954594 0.00008197 -0.00005944 -0.00023109
211 1 4.103140 27.741449 31.990444 0.04910042 -0.01937300 -0.01728719 -0.00017462 0.00008255 -0.00000251
212 1 14.133070 26.933440 28.801142 -0.00600556 -0.02194581 -0.01942573 0.00011731 -0.00012676 -0.00015772
213 1 7.386521 30.289589 18.001438 0.05344881 0.02526598 -0.04318058 332570.72416593 -258821.06531244 -1007347.03482412
214 1 10.406979 22.441117 25.813642 -0.00489064 0.01517090 -0.04270496 -0.00002589 -0.00003798 0.00006683
215 1 19.211411 9.734425 10.072174 -0.08370371 -0.03531898 -0.01616762 -42976.39038050 197216.62290427 -129851.64164118
216 1 10.000729 5.103571 20.132385 -0.00739640 -0.00630073 -0.00652512 0.00006808 0.00019845 0.00014622
217 1 14.303079 22.669563 23.855522 0.02702560 0.00427467 0.01606460 -0.00001718 -0.00027888 0.00043866
218 1 22.652291 27.851123 21.384731 0.01578214 -0.01694912 0.00549053 -11.20405353 6.20929566 -5.38367351
219 1 27.877308 0.009487 11.835196 0.01309663 0.04961231 0.03853244 0.00017874 0.00009908 -0.00006880
220 1 31.816625 24.132826 5.888993 -0.03015075 0.03666676 0.03496735 -0.00235319 0.03070550 -0.00128116
221 1 3.158267 26.137840 12.865274 -0.01204668 0.01724574 -0.03667611 -52448.97500110 -216740.11297885 -170808.18378657
222 1 19.248342 19.047489 18.035551 0.01629056 -0.02483799 0.00058882 0.00014363 0.00073923 0.00108660
223 1 29.265321 30.460107 27.088243 0.01810960 -0.02767668 0.02111435 0.00006071 0.00010164 0.00025869
224 1 11.497486 32.534103 11.922555 -0.02219012 0.04470116 0.02796196 -0.00030788 -0.00010372 -0.00005302
225 1 13.507562 23.630540 20.281858 0.01310693 -0.02202208 0.01912531 -0.00808388 0.06508738 0.00635188
226 1 13.197147 27.373760 29.604775 0.02564634 -0.01704271 -0.00229350 0.00008039 -0.00029488 -0.00006960
227 1 18.775727 28.810828 15.031266 -0.03701580 0.02602156 -0.01827515 0.04138783 -0.13825673 0.02425701
228 1 26.968684 9.043774 17.925466 -0.01486277 -0.02368936 -0.00516834 -0.00000810 -0.00009822 -0.00013781
229 1 16.352749 27.318360 25.092059 0.03185758 0.05465501 0.03484366 0.00017844 0.00013065 0.00019757
230 1 9.246615 9.787251 21.085905 0.01429738 -0.02912544 0.01890605 -59.50636772 -1.54056328 -16.42633789
231 1 6.540591 22.328639 14.364716 -0.04555320 0.01659057 0.02899543 -39189.79429174 24307.60757212 -37149.59311257
232 1 18.385335 8.577701 5.528642 0.00775068 -0.04016187 0.02158305 315.81996738 -300.50918037 -164.07904808
233 1 29.047646 24.228356 2.787885 0.03087301 0.04611550 -0.01899259 250.05685832 1428.39404210 3933.16966332
234 1 12.505509 29.732744 7.092838 0.00768729 0.00495203 -0.04278584 0.00002934 -0.00002486 -0.00007676
235 1 18.487098 27.110875 2.295495 -0.01227947 0.02222759 0.01198348 0.00011973 0.00012311 0.00001984
236 1 2.289784 17.938147 17.987811 0.01396339 -0.03216562 0.03174204 -376.63223650 -1207.68962929 -1137.18043504
237 1 6.152119 24.770451 0.213713 0.00025959 0.05655410 0.08580330 0.00051417 0.00035270 -0.00011846
238 1 6.011187 22.455281 6.976430 0.01154314 0.04441820 -0.03951665 -0.00016436 -0.00114877 -0.00014932
239 1 17.983053 4.592430 32.429561 0.06286758 0.03750148 0.01110444 -0.00021516 -0.00011455 -0.00019989
240 1 32.235998 17.630863 27.147100 -0.00480800 0.01199877 0.02409740 -0.00017721 0.00005980 0.00001099
241 1 25.273738 12.324997 17.755182 0.02152953 -0.03516934 0.00528386 -0.00012753 0.00011925 -0.00002825
242 1 2.943975 31.648069 10.794593 -0.01563914 -0.01681402 -0.00979954 -0.00003652 0.00003452 -0.00011638
243 1 26.557075 21.376933 13.172217 -0.00191951 0.01092477 -0.02777639 216.20014541 -150.53407168 0.28866487
244 1 24.681214 31.106630 21.039380 0.01605626 0.04588206 0.06654755 0.00153354 0.00154353 -0.00016693
245 1 16.504997 17.740750 5.917031 -0.01793510 0.03134105 0.01415525 -0.00010736 0.00012013 -0.00002623
246 1 4.293678 31.628562 30.317731 -0.00024533 0.01512246 0.01311372 -0.00004340 -0.00001365 0.00013356
247 1 2.009731 17.045416 17.148611 0.00166731 -0.01754351 0.03742556 399.68168689 1184.67275396 1120.00892400
248 1 11.349472 26.594088 2.766294 -0.00951851 -0.03517998 0.02968954 22.97431561 6.96858404 0.58990119
249 1 13.333345 3.166469 7.143276 0.00445719 -0.01774817 0.00542556 0.00005907 0.00010463 0.00014098
250 1 29.208212 10.070014 18.385974 0.01461293 -0.00910113 -0.00473910 -0.00024482 -0.00005117 0.00005094
251 1 7.256114 26.344973 23.373728 -0.00447914 0.00330242 -0.02880177 0.00121063 -0.00236595 -0.00010474
252 1 11.399179 1.960064 20.632901 0.01551889 0.01505701 -0.05770342 -8206.46415164 28918.40456123 -45157.02655962
253 1 9.630603 10.892523 14.565417 -0.00647624 0.04057169 -0.01401824 -0.00000434 0.00010846 -0.00019327
254 1 13.598717 22.667186 26.574781 -0.00112457 -0.04822057 -0.03876774 -0.00014117 0.00012954 -0.00003555
255 1 20.939907 20.347071 32.073603 -0.01414087 0.04497928 -0.02825384 -0.00022865 0.00014103 0.00012757
256 1 12.979100 12.393706 17.958419 -0.00518061 0.01428764 0.06006166 -0.00002684 0.00014698 -0.00007729
257 1 21.127309 28.059281 25.818162 -0.03807975 0.00628167 0.00465177 -0.00013443 -0.00000376 0.00057280
258 1 21.681417 5.937270 21.147659 0.00554746 -0.01620050 0.02354776 51.81876243 15.30097059 -0.72536516
259 1 12.599763 25.960342 24.535649 -0.03106456 0.02000144 0.02318240 0.00041688 -0.00129429 0.00148038
260 1 31.968554 21.235175 32.942520 0.01670109 0.05172328 -0.05858692 -0.00224180 -0.00098514 -0.00074980
261 1 30.953696 17.462567 24.963303 0.02049256 -0.01190270 -0.01082799 0.00011101 0.00010266 0.00011240
262 1 21.159224 23.326338 21.629475 -0.00716887 0.00756931 -0.00455942 -0.00053037 -0.00034423 -0.00026488
263 1 11.348687 30.922463 0.358581 0.01066983 -0.03606642 -0.00399853 1607390.55928568 1132995.07395116 -1396288.97569746
264 1 23.976344 23.766010 32.681807 0.00984868 0.02820361 -0.01138282 0.00011017 0.00004621 -0.00001862
265 1 21.660637 23.300090 13.949605 0.02150711 -0.02728397 -0.10628362 0.00043254 -0.00092794 -0.00036488
266 1 28.666945 6.884025 27.463654 0.00617129 -0.07515295 0.06026311 6.72772143 -3.94367789 3.22140549
267 1 14.366738 21.949055 3.698400 0.01102809 -0.04038310 0.05828840 0.00004088 -0.00015249 -0.00015081
268 1 16.054411 26.481542 11.919546 0.02137823 0.03267757 0.05164410 -0.48823394 -0.86131905 6.23400879
269 1 9.588170 21.282943 17.202367 -0.02059596 0.03566751 -0.01356006 0.00041579 0.00013945 0.00008801
270 1 29.927876 0.030951 12.343216 -0.03009081 -0.07110926 0.02267083 -143.18662885 -54.78098631 20.51363460
271 1 4.954365 4.348163 16.628258 0.06181680 -0.02494720 0.02494688 3108.72985207 -2427.86212751 -4001.27735522
272 1 15.164535 32.419454 12.378613 0.00483449 -0.05242625 0.00442016 1.53979503 0.46228395 0.70471070
273 1 3.815912 32.657813 15.055400 -0.00786168 -0.07504194 0.01330984 -0.00034288 -0.00007813 -0.00040773
274 1 28.706262 12.758888 20.560310 0.03261349 0.03021004 -0.02208682 4.51622668 -6.01947663 -6.03693582
275 1 20.028730 19.152705 32.577468 -0.03832140 0.03383802 0.02589214 0.00011333 0.00072547 -0.00032597
276 1 7.062624 24.880932 5.893379 -0.05059720 0.03401889 0.00647737 -0.07329865 0.23470540 0.22323232
277 1 28.297199 31.766001 17.521840 -0.06610534 0.00701522 -0.02820050 14.55625955 28.82719508 22.17550384
278 1 20.937891 20.156931 6.002755 0.01303310 -0.02324006 0.01844865 -0.00000659 0.00002016 0.00032906
279 1 26.041267 17.925406 2.715624 0.02333504 0.00611762 -0.04638856 0.00009764 -0.00004579 -0.00015438
280 1 9.834301 17.393982 19.788611 -0.00923748 -0.05160093 -0.06356781 363487.01127055 29366.69740381 555757.62865983
281 1 0.635534 6.567224 30.912136 0.00008436 -0.01130504 0.00871194 0.00033044 -0.00007530 0.00031333
282 1 7.157141 19.460952 28.315219 0.01139151 0.00384675 -0.00553181 -0.00013259 -0.00009698 0.00001541