ITEM: TIMESTEP
0
ITEM: NUMBER OF ATOMS
3144
ITEM: BOX BOUNDS pp pp pp
0.0 36.432117
0.0 36.432117
0.0 36.432117
ITEM: ATOMS id type x y z vx vy vz fx fy fz
1 1 36.140960 15.133542 33.800458 0.02123109 0.01954318 0.02425543 3.64991057 -4.69257061 -1.93379322
2 1 5.934775 7.434296 20.322322 -0.03606909 0.04138907 0.00253729 -0.00006586 0.00003034 0.00018015
3 1 12.734211 23.459194 15.376050 -0.04366327 0.00855972 0.03587292 -0.00009306 0.00007504 0.00004271
4 1 29.568206 15.722611 20.851893 -0.01366841 0.02755039 0.04066985 -0.00007234 0.00002423 -0.00004166
5 1 11.697377 25.649704 23.853354 0.00114227 -0.02101215 0.03299965 -0.00008676 -0.00009744 -0.00007209
6 1 14.463588 10.056434 22.373123 0.03289980 -0.03548201 -0.00286897 -0.00011706 0.00019534 -0.00009533
7 1 34.361012 4.832466 29.113510 0.02032471 0.02188513 -0.00815428 0.00015601 0.00003827 -0.00017129
8 1 19.782340 19.147252 35.036190 -0.02702998 0.04428771 0.00252000 -0.00008307 0.00003422 -0.00006698
9 1 22.073302 30.257523 18.743496 -0.00503711 -0.01658618 -0.00568202 0.00001927 -0.00018659 0.00000555
10 1 9.102687 25.301751 33.633289 -0.04439943 0.02816816 -0.00763764 -0.00001226 0.00019044 -0.00006728
11 1 30.647794 7.226806 11.544942 -0.05923278 -0.02776913 0.02700004 0.00007117 0.00013015 0.00010822
12 1 18.831057 20.824718 7.061059 -0.00401106 -0.02224104 0.00373298 0.00011488 -0.00000721 0.00004305
13 1 8.379837 27.645823 26.607010 -0.00842230 0.00311507 0.00901100 -0.00005886 0.00005916 -0.00010964
14 1 30.574154 33.988608 11.230605 -0.02301832 -0.01624309 -0.02070790 -0.00007979 0.00020497 0.00009488
15 1 31.316864 24.264220 34.893604 -0.01987676 -0.01770682 -0.00818687 -0.00015609 0.00003591 -0.00009930
16 1 9.912238 9.824704 25.658902 -0.01713863 0.00450829 -0.00884349 0.00006898 0.00003836 0.00002091
17 1 33.823970 30.040315 26.487590 -0.01992293 -0.05429327 -0.02546488 -0.00006394 0.00014563 -0.00006542
18 1 14.110494 26.149784 29.185608 -0.01027843 0.02700085 -0.00197258 0.00002358 -0.00002135 -0.00013906
19 1 27.443792 24.657650 1.717091 -0.04267053 0.00276256 -0.01275967 -0.00003383 -0.00016963 0.00005801
20 1 24.034812 17.425287 35.032005 0.01609955 -0.04123576 0.03415101 -0.00006239 -0.00003447 0.00006306
21 1 22.121213 22.159007 36.215535 0.01260409 -0.00588838 -0.04353111 -0.00006057 -0.00021844 0.00003551
22 1 3.409601 10.066787 23.902363 -0.04119339 0.01932527 0.02264724 -0.00006817 -0.00003323 0.00005539
23 1 11.484724 12.610983 32.520945 0.02936930 0.04701127 0.02112346 -0.00009981 0.00003473 0.00000456
24 1 21.107089 3.747611 11.325382 0.01148998 0.06734632 -0.01538008 -0.00000400 -0.00002584 0.00002410
25 1 2.770968 20.260991 6.312527 -0.00283909 -0.04345839 0.01760822 0.00006339 -0.00017278 0.00007717
26 1 31.226520 21.032772 2.163180 -0.00573665 -0.01748637 -0.01690104 -286.08969004 -905.52340447 1834.78044657
27 1 10.961537 22.454486 12.222914 -0.02241589 -0.00476336 -0.04065464 -0.00010194 0.00010817 -0.00014379
28 1 18.696113 33.129994 12.752552 -0.03811489 -0.03121800 -0.01748489 -3210.45691812 -3837.91089140 17197.69846768
29 1 12.236560 29.865477 11.612975 -0.01308228 -0.05777099 -0.01452567 0.00003823 -0.00006429 -0.00012116
30 1 2.840188 6.592208 34.566802 -0.02372058 0.02207126 -0.02537648 -0.00021088 0.00001556 -0.00005439
31 1 34.001833 8.190380 20.165245 0.02830863 0.04911509 0.03290023 0.00011707 0.00006237 0.00013935
32 1 5.004611 24.579935 6.751083 -0.02768181 0.01464673 -0.02719667 -0.00014823 -0.00009648 0.00004474
33 1 1.813971 30.052737 11.855025 -0.02327645 -0.02138364 0.00383871 0.00013349 0.00024201 0.00004312
34 1 3.953701 30.380887 27.775754 -0.02464190 0.00109052 0.03559727 0.00000299 0.00008560 -0.00006191
35 1 24.910768 33.198720 17.823542 -0.03106680 -0.04534478 -0.01804970 -0.00007915 0.00005747 0.00007051
36 1 4.665369 2.234980 11.601481 0.04026433 0.01941536 -0.02409524 -0.00000411 -0.00008423 0.00010090
37 1 3.163431 19.509743 0.528230 -0.02947822 0.00912614 0.00275210 -101.04709074 -54.36681224 85.58420276
38 1 16.167237 6.501686 13.416785 0.01756009 -0.03257387 -0.00236318 -0.00006086 0.00014678 -0.00000791
39 1 24.592921 12.786353 12.435735 0.02526330 0.03182349 -0.03492910 -210320.22922041 -120991.61663566 -123397.43599318
40 1 36.095147 26.187942 18.721070 -0.00240645 -0.00806344 -0.02359499 -0.00001477 -0.00015742 -0.00009711
41 1 21.107882 22.594566 0.895334 -0.02073729 0.01598803 -0.02159768 0.00011229 -0.00010156 0.00003925
42 1 2.924209 23.651343 13.278372 -0.00347487 0.01372405 0.04941282 0.00005998 -0.00003467 -0.00007250
43 1 2.019944 10.839037 4.746501 0.00844100 0.02032414 0.00741430 0.00002216 0.00005606 -0.00016007
44 1 33.383253 7.393002 5.234975 -0.00579705 -0.00630031 -0.00327903 -0.00021883 0.00011284 0.00005805
45 1 22.812656 19.014357 20.982439 -0.06032835 -0.00922105 0.01235814 0.00003188 -0.00007560 0.00011222
46 1 15.882514 17.019967 28.373244 -0.02077996 0.04096419 0.00353008 0.00011050 0.00000615 -0.00002968
47 1 8.012231 14.446402 34.895607 -0.00369872 0.02356847 0.01590490 0.00005882 0.00000483 -0.00006819
48 1 6.921581 10.702794 6.979189 0.03194161 0.03743370 0.04131657 -0.00015830 0.00002420 -0.00001576
49 1 0.746694 9.830475 1.692907 0.01288179 -0.02923861 -0.00672015 30.85941790 -77.31778098 -43.47008917
50 1 5.635507 13.213276 0.754918 0.04621409 0.00731389 -0.01224237 0.00019408 -0.00013633 0.00014293
51 1 27.431802 28.984992 14.988676 -0.01536411 -0.03038037 0.02592209 -0.00009865 -0.00007236 -0.00005804
52 1 35.873467 24.737186 27.095358 -0.01273617 -0.02771162 -0.02452765 0.00002790 0.00002962 0.00006016
53 1 7.005912 30.509626 34.430041 -0.07357232 0.01991012 -0.00669352 0.00012330 -0.00002907 -0.00006657
54 1 8.609280 25.009348 27.212644 -0.03464498 0.03911287 0.00131152 -0.00009382 0.00001472 -0.00000040
55 1 11.117959 17.305584 3.553556 -0.06320187 0.02035256 -0.02849987 -0.00013836 0.00007214 -0.00004298
56 1 6.306210 2.243145 20.408015 0.01678928 0.01424254 0.00387322 0.00015353 -0.00001616 -0.00010771
57 1 22.779651 33.376176 19.752941 -0.03529387 -0.03475591 -0.00137884 0.00002756 0.00010484 0.00004221
58 1 9.494624 2.166747 32.240713 -0.02654354 0.03438079 -0.00286107 0.00012574 -0.00007751 0.00006413
59 1 17.445814 26.862201 0.533707 -0.02833368 0.02815587 -0.05387614 -1004.70196369 1761.50427658 477.02891110
60 1 17.783935 11.866765 1.105032 -0.00371726 0.01568211 -0.02901356 -3.68772638 0.09206591 -4.79022571
61 1 28.259403 18.686093 12.138462 -0.01219287 -0.01901568 -0.03170565 -0.00000709 0.00000076 0.00005728
62 1 29.356945 16.282368 0.127438 0.00215602 0.02399593 0.05649867 -0.00013889 -0.00016400 -0.00006906
63 1 34.408227 9.315064 30.259625 0.02148451 -0.00759450 0.03142930 -0.00009678 -0.00004080 -0.00007061
64 1 29.743741 5.915626 17.268921 -0.03183758 -0.01512152 0.02686085 0.00002698 0.00002014 -0.00002586
65 1 1.464534 12.917068 26.631107 -0.01855480 0.00162884 -0.01976941 -0.00001012 -0.00014379 0.00005657
66 1 8.636943 4.267219 18.475585 -0.00608023 -0.00195215 0.01329005 -0.00004878 0.00010016 -0.00018734
67 1 19.563551 24.621879 27.656995 0.00467228 0.02016031 0.01105647 0.00007586 -0.00003163 0.00013589
68 1 25.349814 30.800157 8.120954 -0.00563537 -0.01717979 -0.02578817 0.00012411 0.00023292 0.00009538
69 1 20.757809 13.119036 35.051790 -0.07690934 -0.00324507 -0.03223007 0.00099724 0.00054868 -0.00087487
70 1 16.040315 34.964411 28.018690 -0.02470424 -0.00847411 -0.01469240 -0.00007152 0.00009212 0.00000761
71 1 26.175160 17.908707 16.153204 0.01544068 -0.00469822 0.04587010 0.00027639 0.00009559 0.00001716
72 1 19.183265 10.697674 32.953212 0.06186482 -0.00863112 -0.02388221 -0.00007808 -0.00031241 -0.00046324
73 1 28.939148 29.196548 15.780703 -0.04971728 0.05153779 -0.02041243 -44827.69705125 61570.40316478 -112127.88345159
74 1 2.589921 24.885953 13.640680 -0.01523416 -0.01972767 -0.00921083 -0.00019321 -0.00006703 -0.00008502
75 1 31.711619 28.429382 5.294612 -0.01344818 0.02331278 -0.07742279 0.00008592 -0.00003264 0.00012469
76 1 21.921778 25.218819 20.698455 -0.00529053 0.02024494 -0.01946672 0.00000470 -0.00003265 -0.00001517
77 1 18.727645 8.301534 8.594586 0.01658865 0.00252364 -0.02023942 -0.00013866 -0.00005194 0.00005166
78 1 27.980163 0.680908 28.377343 -0.05109795 0.01146277 0.00897510 -0.00001305 -0.00014560 -0.00026840
79 1 19.192393 34.108574 36.334536 -0.02088315 0.02142619 -0.01367708 -0.00012999 -0.00008315 0.00008930
80 1 24.172148 15.019402 17.308386 0.02916746 0.00854360 0.04173081 -0.00014181 0.00005922 0.00010936
81 1 7.440000 3.615317 21.085576 0.01023574 0.00079020 -0.05313856 2610.12498693 -998.71982210 2082.64770470
82 1 29.345892 9.536708 15.288840 0.00151348 -0.00674540 0.04554201 0.00004770 -0.00001720 0.00012709
83 1 20.211579 33.076640 5.050629 0.00601905 0.02206404 0.03958480 -0.00003184 -0.00001828 0.00008379
84 1 8.630155 33.464009 1.440365 0.03776990 -0.00245315 0.06002836 0.63584109 0.17240303 -1.02093577
85 1 23.903682 23.299282 13.962771 -0.01426997 0.03751515 -0.02105073 -0.00004813 0.00006625 0.00006509
86 1 17.056231 31.146471 6.010646 0.02424987 -0.02717591 0.01744622 0.00001221 0.00003160 -0.00014788
87 1 8.436494 18.666010 14.927893 -0.02407782 -0.02923264 -0.02724661 -1383.12303412 -2186.99435310 -700.37760977
88 1 20.925606 33.548121 33.411968 0.01404128 0.01394286 0.01382184 0.00009903 0.00003644 0.00012621
89 1 8.380055 11.007768 5.904505 0.00624081 -0.01364827 -0.02034155 0.00009166 -0.00018366 -0.00000212
90 1 33.801368 14.495033 16.383711 -0.02918489 -0.03087444 0.03420326 -0.00021287 -0.00002853 -0.00008586
91 1 29.241903 18.688710 4.362946 -0.02985580 -0.02628313 -0.02814488 -0.00120312 -0.00129492 0.00129514
92 1 15.951756 22.971326 26.202310 -0.03740835 0.00859015 -0.01511100 -0.00016230 0.00021749 0.00004560
93 1 23.511534 4.342006 11.087915 -0.00461857 -0.00328584 0.00813935 -0.00000660 -0.00000873 -0.00017238
94 1 26.725313 32.067192 1.719101 0.00285553 0.03337903 -0.01883275 -0.00006619 -0.00010647 -0.00006982
95 1 1.538496 23.440589 19.966482 -0.01669593 -0.00250745 -0.00206639 0.00006133 -0.00008030 0.00003827
96 1 5.659331 19.975423 35.502637 -0.04181354 -0.04445617 -0.00396940 -0.00843770 -0.00155443 0.00517416
97 1 22.985031 16.363163 30.148761 0.03907471 0.04186497 -0.03150140 0.00002912 0.00014499 0.00018704
98 1 7.753574 15.094789 19.227702 -0.01213870 0.00458256 0.00856941 -7.53676972 0.90613337 2.16764831
99 1 18.381457 33.552977 10.662519 -0.02745227 0.04800421 -0.01607936 0.20160037 -0.27101805 1.33970190
100 1 2.058550 33.385562 7.908234 0.01040149 -0.00928409 -0.00914560 0.00005233 0.00011193 0.00008672
101 1 13.808792 19.341506 35.553392 0.02133640 0.02777301 0.01919458 -0.00006333 -0.00008396 -0.00010580
102 1 19.500963 16.312237 21.263186 -0.02490240 -0.03794101 0.07501171 0.00015788 0.00009087 0.00012433
103 1 35.368597 29.799454 6.155867 0.00865557 -0.02531664 0.02656726 -0.00017510 0.00007662 -0.00006549
104 1 29.264463 30.643020 25.163449 -0.02554309 0.05550268 -0.01149623 -0.00011138 -0.00013302 0.00000762
105 1 23.944407 16.062083 23.378322 0.02421762 -0.00126573 -0.04297489 -0.00002434 0.00005226 0.00001150
106 1 26.871418 4.474602 9.375075 -0.02774384 -0.02164255 -0.01930957 9033.80150581 -6263.18734521 4762.34063711
107 1 7.070814 30.647128 24.773934 0.00528596 -0.06856872 0.00547786 0.00009789 0.00005633 -0.00000045
108 1 16.422817 30.094960 26.113862 -0.05571017 0.01009255 -0.02257271 0.00000192 -0.00004199 0.00006344
109 1 33.284130 2.798241 18.549681 0.00379580 -0.03761304 -0.01774481 0.00006323 -0.00009964 0.00016231
110 1 25.748323 7.559416 11.917901 -0.05770207 -0.03513884 0.03951554 -0.00032139 0.00069395 0.00090633
111 1 15.264192 28.938964 17.982026 0.04026006 -0.03508174 -0.00954628 -62124.95305607 -102797.82258070 -199681.85386159
112 1 17.956299 15.698148 8.327985 0.01292321 0.00226914 -0.01623859 0.00011899 -0.00010803 -0.00006068
113 1 33.629451 11.578168 20.673976 -0.04390457 0.02472918 -0.01431928 0.00015596 -0.00007094 -0.00010841
114 1 5.420361 15.820406 32.927476 -0.04639647 -0.00127423 -0.00968758 0.00023847 -0.00010849 -0.00005232
115 1 36.266906 13.179386 5.610202 -0.01434181 0.00356860 -0.00600166 -0.00006941 0.00015341 0.00013305
116 1 11.456135 11.922111 23.480820 0.03161685 -0.02575001 -0.02173427 0.00009169 -0.00005798 0.00006456
117 1 18.076040 27.996615 25.549964 0.02175547 0.07035972 0.06594778 -0.00008002 0.00004387 -0.00000135
118 1 9.155709 28.572095 30.874830 0.02063697 -0.00988442 -0.01505808 -0.00000812 0.00004952 -0.00020727
119 1 21.800622 33.796899 28.524458 -0.01091441 -0.04909652 0.01925666 -0.00010524 -0.00001863 0.00001348
120 1 21.691534 33.013546 21.872331 0.03725756 -0.00380775 0.05901267 0.00003511 -0.00006585 0.00003099
121 1 18.988096 12.979246 32.164580 0.07686599 0.02495638 -0.01890204 0.00000065 -0.00003853 -0.00012478
122 1 4.471211 17.250706 19.579106 -0.02419831 0.02182609 0.02969876 -0.00143068 0.00099902 0.00023969
123 1 20.210685 23.749727 18.427206 -0.01852086 -0.03269510 -0.04823634 0.00005876 0.00000924 0.00009435
124 1 9.356429 31.220299 23.955040 -0.02942712 -0.01179178 0.03074758 0.00014914 0.00010676 -0.00014081
125 1 31.265599 10.056849 23.209332 -0.01614882 -0.08649483 -0.01847509 -0.00004858 0.00017139 -0.00015909
126 1 26.018862 13.968262 29.591773 -0.00939365 -0.01001183 -0.07284465 -0.00004313 0.00018929 -0.00011681
127 1 0.091400 21.674186 22.353599 -0.00961921 0.03722043 -0.01314408 -0.00007841 -0.00001002 -0.00013432
128 1 19.449034 22.954000 6.092428 -0.01902703 -0.02177215 0.00432031 0.00009578 0.00003191 0.00014483
129 1 24.948039 12.233503 16.469275 -0.04295234 -0.03196060 0.03163918 -0.00003394 -0.00014317 0.00142413
130 1 12.135879 17.266499 22.645083 0.01892172 -0.01529447 0.01371275 -0.00006492 0.00024348 -0.00002676
131 1 30.542628 17.612563 11.775728 -0.02593139 -0.02628239 -0.02685522 0.00006099 -0.00002100 0.00005613
132 1 17.776756 25.094576 12.631041 -0.04426233 -0.00267074 0.05611578 -0.00003977 0.00006582 0.00012487
133 1 15.093173 20.505446 10.711380 -0.05632492 0.04753955 -0.07655525 -353.05897395 -2546.77526761 -1459.36763494
134 1 7.617397 5.114788 12.846328 0.01407246 -0.05236642 0.01441322 2.26659830 -0.19956286 1.33740655
135 1 1.761234 21.257504 6.408751 -0.02292128 0.02024924 -0.02269113 0.00008994 -0.00000596 0.00017132
136 1 13.749291 9.808357 22.966441 0.01390835 -0.00610254 0.03406498 -0.00019029 -0.00004171 -0.00008418
137 1 30.979893 23.072498 19.764603 -0.00547654 0.00583028 0.00156524 -0.00013538 -0.00008863 -0.00000395
138 1 24.376137 1.092622 4.475491 0.02461573 0.02623940 0.00101201 -0.00008762 0.00001079 -0.00004566
139 1 3.458400 3.577531 9.489973 -0.04896522 -0.02761101 0.02201089 -0.00020326 0.00005960 -0.00004802
140 1 19.383790 4.178093 34.068265 -0.04378563 -0.02087531 -0.01732315 0.00003629 -0.00012312 0.00003317
141 1 31.122384 35.399061 1.548367 -0.00671422 -0.01074043 0.00090147 0.00006262 0.00008421 -0.00004418
142 1 31.018394 29.281734 32.865627 -0.03030111 -0.02468337 0.04991945 0.00012240 0.00011029 0.00015570
143 1 19.234124 28.704467 1.868490 0.03937528 0.01430571 0.01717793 -0.00822662 -0.00837893 -0.00617477
144 1 2.764389 4.318381 33.327695 0.00720887 -0.00200029 -0.02503450 -0.00007470 -0.00015598 -0.00012196
145 1 2.228529 3.648659 33.896821 0.04033822 0.05214499 -0.01614819 3.80215788 0.89040503 -2.55059136
146 1 3.912539 31.687064 28.754806 0.03038573 -0.01292455 -0.02309784 0.00020060 0.00003618 -0.00010911
147 1 1.467558 0.795947 19.468900 -0.01322222 -0.01156698 0.01589511 -0.00006999 -0.00000211 -0.00004233
148 1 36.329211 32.017644 11.294883 -0.01364692 0.02300185 -0.02170279 -0.00005267 -0.00006060 0.00007139
149 1 14.074063 14.132237 26.747689 -0.00279118 -0.03304654 -0.03787934 0.00006383 -0.00010122 -0.00017367
150 1 12.428188 5.384560 27.218705 0.00922963 0.00193231 -0.01410315 -0.00008775 0.00012591 -0.00002893
151 1 16.686479 2.797211 28.783277 -0.02726018 -0.03386115 0.00897620 -0.00003454 0.00004877 -0.00012569
152 1 21.324129 17.828761 24.531317 -0.02056601 0.04498074 0.00402793 53348.68673424 -3295.66416488 36858.79155573
153 1 18.411615 23.623319 31.604444 0.01394343 0.03884119 -0.02423125 -0.00007717 0.00007891 -0.00005479
154 1 22.351627 24.030643 22.364076 0.01178155 0.01328227 -0.01544745 0.00005813 0.00002123 0.00006788
155 1 19.352004 6.265319 12.229447 -0.04414399 -0.06166638 -0.02642107 -0.91026908 -1.43820797 2.01351515
156 1 25.251427 15.500995 14.796140 0.03061874 -0.02291264 0.02624563 0.00048866 0.00159897 0.00148067
157 1 27.661788 0.202885 24.737207 -0.02232993 0.00043925 0.01410514 0.00001907 -0.00000291 0.00022300
158 1 17.823558 13.726259 12.406470 0.02823870 -0.01381420 -0.01889476 -0.00000076 0.00005629 0.00004153
159 1 6.298220 12.177511 14.260204 -0.05663272 -0.01292649 0.09282782 -0.00005867 -0.00003209 -0.00009838
160 1 15.937190 24.493336 16.524553 -0.00695520 -0.04088754 -0.00507351 0.00002318 -0.00038560 -0.00017477
161 1 29.010323 23.307010 6.907423 0.02006864 -0.01769313 -0.03146144 -0.00022266 -0.00013971 0.00008800
162 1 10.098006 2.887216 34.454646 0.07084598 0.01048810 0.04318674 0.00005468 0.00006945 -0.00023715
163 1 32.298911 3.089306 20.914805 -0.01128714 0.05000368 0.02558635 0.00013288 0.00002752 0.00001119
164 1 34.989472 27.219994 17.917760 0.01441337 -0.03464633 -0.02074464 0.00013228 0.00005208 0.00011943
165 1 8.783892 10.165911 26.822708 0.01269003 -0.00979216 0.01050435 -5600455.74201407 -11211020.65421604 12232082.01971836
166 1 28.438010 19.261417 4.406417 -0.01344361 0.01188475 -0.01847581 -28.64574891 -53.87217936 -67.40165518
167 1 34.022802 30.776495 5.120125 0.01269583 -0.02843656 -0.00966573 0.00006331 0.00009516 -0.00019948
168 1 2.066706 19.522794 10.351917 -0.00606242 -0.02542824 -0.01809478 -0.00001589 0.00002408 -0.00002122
169 1 10.319387 3.177667 34.733865 0.00789666 0.01995874 0.00706935 0.00001906 0.00001817 -0.00007492
170 1 30.244722 4.147235 31.936349 0.01428888 0.00241941 -0.01959367 -0.00004006 -0.00008562 -0.00004418
171 1 24.881535 11.856510 31.741502 -0.04869144 -0.01493143 -0.00342931 0.00017460 0.00007044 -0.00003217
172 1 21.787215 30.918839 17.096424 -0.01770166 0.04378525 0.00779342 15854578.62263743 -22513594.04610101 1929430.89819916
173 1 18.239777 10.602112 14.124466 -0.00258056 0.01542551 0.05702630 -0.00000556 0.00047527 0.00005699
174 1 20.684410 34.503373 21.863561 -0.00793858 -0.02718831 0.00907495 -0.00016480 -0.00003365 0.00006295
175 1 5.369300 0.254886 31.003289 -0.03240603 -0.02688142 0.04015202 -0.00002394 -0.00011739 -0.00014906
176 1 13.273147 11.474876 29.172330 0.03653731 0.01833457 0.01099304 0.00019811 0.00009074 0.00035440
177 1 34.441623 27.252866 6.333626 -0.03442820 -0.02280107 0.03730475 21.06634218 31.14343665 -2.47966520
178 1 14.258740 27.666497 33.041228 -0.01429345 -0.02255506 -0.00535564 0.05624338 0.05412321 0.02690086
179 1 36.381115 18.637247 29.966321 0.01627049 -0.00585080 -0.00501858 0.00000353 0.00017625 -0.00050412
180 1 1.698889 10.413201 13.535020 -0.06141411 -0.00199667 0.02812368 30551.24894082 8469.24069693 -5596.12235418
181 1 35.540399 0.123638 11.221848 -0.00193418 0.05836508 -0.02036677 0.00013913 -0.00010312 0.00005847
182 1 33.896889 11.172937 8.199659 -0.01380272 -0.01890655 -0.01969440 -0.00012657 0.00013834 0.00006848
183 1 26.598670 27.154274 17.202440 0.01513941 -0.00775142 0.05482375 -0.00162235 -0.00166947 0.00117383
184 1 34.498208 7.385048 33.277673 0.00696959 -0.02458679 -0.02798825 -0.00017597 0.00012851 -0.00025973
185 1 27.524759 13.414609 29.397390 0.04699495 0.00622353 0.03680325 -0.00011777 -0.00004544 0.00029304
186 1 4.852837 4.771970 33.879581 0.00195985 0.00044768 0.03777716 -0.01624201 -0.00696292 0.00006402
187 1 3.453055 0.148629 14.173205 0.01051146 0.01020108 -0.01142735 0.00009878 -0.00001545 -0.00014293
188 1 3.783511 31.442247 33.615678 0.02457103 -0.00209396 -0.01565105 -0.00007775 -0.00006481 -0.00018476
189 1 17.575814 15.500829 19.638342 0.06069269 -0.00844793 -0.02228551 -0.00003528 0.00000437 0.00005957
190 1 8.240749 10.855527 3.678812 0.03207157 0.01913769 -0.01869104 -1477.54124388 -303.89587064 222.45685626
191 1 16.265122 22.285221 33.890020 -0.00222333 0.01886137 0.00595799 0.00018943 -0.00025233 -0.00003214
192 1 26.926000 26.342743 11.221054 0.02216236 -0.00018567 0.02306702 -0.00014093 -0.00014285 -0.00021334
193 1 32.362406 34.499601 33.964313 -0.00871056 -0.01821333 0.02969111 0.00000324 0.00001664 0.00001291
194 1 1.413676 22.017773 23.434053 0.00820757 0.01936996 0.03452191 0.00010905 0.00001861 -0.00020012
195 1 10.749849 36.155677 10.608576 -0.01614446 0.01501121 0.06541577 -0.00001541 -0.00006245 -0.00007434
196 1 7.891621 17.638451 11.772943 -0.00451518 -0.03401610 0.02317874 -300007.05768100 51770.90910091 -144000.14896406
197 1 33.664350 16.032927 14.942617 -0.04694115 -0.03094982 0.00017528 -0.00015275 -0.00010968 -0.00014821
198 1 22.801483 2.955179 27.569384 -0.00081074 0.00530713 0.06222647 0.00007742 -0.00015319 0.00005457
199 1 27.994396 17.269765 34.818100 0.00238580 -0.01627975 -0.01807797 -0.00006745 -0.00010849 -0.00009383
200 1 21.106550 25.328936 33.675844 -0.01286045 -0.03422215 0.01579163 0.00044328 -0.00023377 -0.00028589
201 1 24.276372 15.732336 0.902466 0.00850695 0.01316114 0.02257645 -0.00018230 -0.00000684 -0.00008997
202 1 26.533486 35.152112 17.131661 0.01746130 -0.03895275 -0.00792965 -0.00007360 0.00006697 -0.00008869
203 1 12.378491 18.917720 26.538510 -0.00676838 0.03883392 0.04131106 0.00008053 -0.00019835 0.00014269
204 1 0.025155 32.323002 32.292076 -0.01201227 -0.02795068 0.00446994 0.00013655 -0.00008570 0.00002944
205 1 19.720630 4.458518 24.475308 -0.00898656 -0.00235609 0.03427576 0.00024121 0.00002332 -0.00010129
206 1 5.022009 18.491017 3.411138 0.00758135 -0.01353014 -0.01857691 0.00139175 -0.00065381 0.00190756
207 1 21.460898 11.587939 30.274777 -0.04049111 0.01585789 0.00795664 70.12690915 20.64695956 -422.62069009
208 1 29.143731 36.376517 9.381386 0.01588878 -0.00047332 -0.02978184 0.00005673 -0.00037219 0.00016708
209 1 2.251545 16.139547 3.038560 0.00157028 0.03212967 0.00164233 -0.00022873 -0.00066951 0.00070833
210 1 6.503123 21.760909 21.572581 0.04631812 0.00711258 0.05548211 -211726.63696853 190430.36981445 -243676.83352470
211 1 1.578512 16.135958 19.316990 0.05777472 -0.02530897 -0.01823488 -0.00010993 -0.00009010 -0.00017800
212 1 9.764690 31.770380 5.869165 -0.01288732 -0.04815825 0.01308220 0.00011256 -0.00012734 0.00052698
213 1 9.250180 5.719639 4.246041 0.01231072 0.00541683 -0.03449870 42.45199578 -13.53694982 -40.72701133
214 1 32.023073 10.122998 26.323080 0.04478993 -0.05302141 -0.03730336 0.00004694 -0.00010050 0.00005678
215 1 15.592304 23.166217 33.815424 0.02498706 0.00890781 -0.01731566 0.00007702 -0.00081300 -0.00025248
216 1 30.770853 2.513320 30.792518 0.00155025 0.00364226 0.03320449 -0.00000660 0.00004323 -0.00018032
217 1 16.460887 12.756550 24.496516 -0.03429530 0.00823044 0.03041758 -0.00007616 -0.00005935 0.00007567
218 1 34.618085 3.429555 27.982672 -0.02814172 -0.00145383 -0.00166253 -0.00013199 0.00004674 0.00003403
219 1 7.414228 13.849164 31.835223 -0.04549724 0.00823817 0.00992163 42585.70166833 51060.25382251 73550.07304619
220 1 19.884620 2.457589 18.509284 0.04218965 -0.00060124 0.01234323 -15.30612763 1.59922378 7.65293660
221 1 28.768326 19.268240 6.080128 0.04151103 -0.01809587 -0.03329658 -6.08424588 -0.12589865 -30.82788046
222 1 16.213789 33.675859 23.979765 0.00344203 -0.00556126 -0.00256042 0.00002605 0.00007176 -0.00012145
223 1 26.591311 28.633331 3.304153 -0.01192712 -0.02368065 0.02634274 -0.00001449 -0.00006352 0.00002878
224 1 21.186608 13.695386 5.069863 -0.00057545 0.06331459 -0.02932398 0.00020300 -0.00011017 0.00018815
225 1 7.385138 28.459330 5.883390 0.05657221 0.00824757 0.00052287 0.00014001 0.00011425 0.00019197
226 1 11.382071 10.378539 1.771707 -0.03103503 -0.01868218 0.03548913 0.00201356 -0.00003117 -0.00127510
227 1 16.837411 27.904446 0.807067 -0.07515826 -0.05061902 -0.04544946 1027.30091157 -1759.85155947 -461.57451258
228 1 4.100488 26.237926 21.625412 0.03301922 0.01919442 -0.02856379 -0.00008750 0.00038440 -0.00025239
229 1 26.057985 8.383174 29.282999 -0.01329800 0.00366083 0.02875130 0.00015096 -0.00014431 -0.00005608
230 1 17.482719 22.234593 3.357344 -0.02856516 0.00375584 -0.00970795 0.00015424 -0.00030930 0.00001790
231 1 7.469735 28.175065 8.157459 -0.00290378 -0.02527788 0.00591632 0.00017532 -0.00001756 0.00010273
232 1 3.371058 21.757380 19.962487 -0.02206230 0.00269227 0.04405704 -0.00226788 0.00001557 -0.00124274
233 1 22.146863 22.526178 18.223248 0.02942936 0.03918783 0.00892199 0.00011457 0.00009057 -0.00005470
234 1 17.989229 33.669308 19.450442 0.03194209 -0.05081644 -0.04778156 -0.00019843 0.00020459 0.00018435
235 1 22.489553 9.726260 31.735770 -0.02833787 -0.02639212 0.02954755 -0.04127642 0.07442945 -0.05849644
236 1 0.887781 20.300951 13.984479 -0.04254091 -0.03825548 -0.00343712 0.00005166 -0.00001705 -0.00012822
237 1 22.001509 13.121830 26.146890 0.00386267 0.02467336 -0.00753962 799.39242352 381.42390893 -1764.11119093
238 1 0.740718 14.787412 30.284693 -0.00515193 0.02501596 -0.02537394 0.00039661 -0.00020984 -0.00218835
239 1 9.115342 1.921826 18.089423 0.00345882 0.01607090 -0.01044365 0.00077492 -0.00080029 -0.00164869
240 1 35.577182 2.337432 2.552306 0.02426811 -0.02415769 0.04405300 -0.00002915 -0.00020290 -0.00001405
241 1 21.681357 9.110496 14.945592 -0.00887446 -0.01237883 -0.04119086 0.00026545 0.00033780 0.00057775
242 1 30.257134 7.244479 26.205620 -0.03158276 -0.02288436 -0.03180459 0.00007401 -0.00012621 -0.00015254
243 1 18.379475 32.969525 35.447066 -0.03334306 0.00123690 0.01695016 0.00009708 -0.00006975 -0.00012840
244 1 17.668148 21.299930 27.172623 0.00788297 -0.09014163 -0.02936641 -0.00012424 0.00013609 0.00010942
245 1 11.609974 8.260631 35.145523 0.03206208 -0.03788709 -0.00341322 -0.00008349 -0.00002507 -0.00021444
246 1 15.761095 0.057957 30.519851 -0.03090798 0.03680791 -0.02240385 0.00003620 0.00001527 0.00008707
247 1 21.847035 6.140945 1.098053 0.01939283 -0.02042567 -0.06840084 0.00000023 -0.00008003 0.00017280
248 1 10.619322 33.804892 34.009060 0.01327971 -0.05411386 -0.02575070 0.00025329 0.00029243 -0.00090158
249 1 11.330516 30.454736 16.097361 0.05261154 0.08824769 0.00056719 -0.00073247 0.00016757 -0.00020382
250 1 23.839165 12.184499 18.797974 -0.02513527 0.00073078 -0.03705163 0.00007459 0.00019529 0.00006850
251 1 10.703007 2.226526 5.077842 -0.01190477 0.04518183 0.00590621 0.00075699 -0.00157470 0.00023923
252 1 10.589887 35.566992 35.181481 -0.04010682 0.01146008 -0.04826243 89738975.58323197 -28885915.94318691 -18165967.80002207
253 1 30.153528 8.470688 16.088501 -0.05292104 0.02159169 -0.02153491 194.67265169 -383.98875307 -287.11068330
254 1 16.022220 14.098255 1.635085 0.04436706 -0.02972969 0.03461179 0.00824647 -0.01002944 -0.00244318
255 1 19.473964 2.652695 29.215595 0.04628665 0.00438778 -0.00853224 0.00004995 0.00010864 0.00003901
256 1 25.185783 12.850956 23.576549 -0.01693069 -0.01516619 -0.04516892 0.00100622 -0.00014983 -0.00097771
257 1 8.490032 9.663621 11.444549 0.01806592 0.01707658 -0.00646954 0.00020962 0.00041627 -0.00013538
258 1 29.036820 7.675932 20.503312 0.00084455 -0.01279968 -0.03429887 -0.00013786 -0.00020670 0.00054946
259 1 7.303441 10.384517 8.579082 -0.03676927 -0.01602674 -0.01106888 -0.00020039 0.00019356 0.00044615
260 1 23.498886 19.189851 26.278455 0.03258107 0.01884847 0.04343227 -0.00065913 -0.00024375 -0.00042030
261 1 8.013005 0.333301 24.792404 0.01946003 -0.04469063 -0.04185930 0.00004597 -0.00024082 0.00024812
262 1 4.184373 8.973421 11.136794 -0.02989350 -0.00994491 -0.02188632 0.00147687 -0.00067096 -0.00136409
263 1 27.207581 22.802564 6.713180 0.01951225 0.03322973 -0.03406984 43705.62348927 74375.70591312 113887.49643151
264 1 21.782319 25.799331 14.168349 -0.04632435 0.04636624 0.00652542 -0.00013000 -0.00015827 0.00001851
265 1 8.960585 24.736780 22.256060 -0.01509460 0.04459487 0.03511021 1.32481930 -0.28629217 0.80512122
266 1 2.838505 24.288551 17.797743 -0.01668208 0.02454351 0.03249088 59954.37231995 4777.69475233 -20877.06965976
267 1 27.446826 6.948244 9.407371 0.02364439 0.03575678 -0.02677371 -0.02982334 -0.12830137 -0.00184579
268 1 19.794033 17.550572 14.076109 0.00073625 0.04639676 -0.01099113 0.00002285 0.00001858 0.00001950
269 1 27.179573 20.575095 25.876708 -0.01819056 0.00313119 -0.04463624 0.00007677 -0.00004152 -0.00015033
270 1 5.583403 26.558587 16.814446 0.00920256 -0.04697273 0.03571836 0.00164012 0.00128084 -0.00068998
271 1 1.230237 8.543024 0.938360 -0.04571086 0.02394533 -0.02057524 -29.14301129 77.59411390 45.47614872
272 1 16.644906 11.872490 35.974878 -0.02982414 0.00073992 0.00843989 3.53217623 -0.01779970 4.84460856
273 1 31.641444 30.080938 18.256737 0.00259527 0.00958495 0.01948437 0.00154911 0.00058592 0.00140335
274 1 29.403906 9.722626 20.425647 -0.05670593 0.00381297 -0.03845866 0.00000880 0.00021257 0.00075905
275 1 14.314837 6.242349 2.645461 -0.03576796 -0.03102472 -0.05561831 0.00015796 0.00005545 0.00011290
276 1 20.337078 3.557200 26.158373 -0.00031143 -0.04982804 0.01142116 8086.00078562 -20911.67145179 -12297.86245154
277 1 33.571048 5.905869 17.157290 0.04282374 0.04412228 -0.03076253 0.00057020 -0.00069056 0.00016762
278 1 26.915123 10.450176 33.545401 -0.03347447 0.02202988 0.00159799 -0.00009301 0.00002089 -0.00003959
279 1 32.368682 3.779991 0.998232 -0.00208839 -0.03687780 0.00339534 0.00003184 0.00009630 0.00005302
280 1 35.574450 34.846410 15.384759 0.02439262 -0.02178370 0.01307676 -0.05341869 -0.01577480 -0.00316872
281 1 1.842129 22.546947 10.689551 0.00450237 -0.01840565 -0.00144070 -0.00017103 -0.00005570 -0.00001323
282 1 34.126802 28.951217 23.666077 -0.02951014 0.02413205 -0.02903368 -0.00001003 0.00002443 0.00009125
283 1 10.365078 25.548699 10.535012 -0.01685881 0.02544945 -0.01475805 0.00012716 0.00009265 0.00003376