ITEM: TIMESTEP
0
ITEM: NUMBER OF ATOMS
4904
ITEM: BOX BOUNDS pp pp pp
0.0 43.018187
0.0 43.018187
0.0 43.018187
ITEM: ATOMS id type x y z vx vy vz fx fy fz
1 1 9.228278 16.837048 37.077148 -0.03940598 0.00850959 0.03241475 0.00007880 0.00023902 0.00004491
2 1 27.278607 35.097998 38.785498 -0.07630687 -0.01438331 -0.00955659 -0.00007173 0.00005802 -0.00002657
3 1 0.441562 9.268713 35.248168 0.04060836 0.03782043 -0.04384398 -0.00001231 -0.00000475 -0.00011234
4 1 41.125410 24.489769 24.780268 -0.00285449 0.00159307 0.05019324 0.00018507 -0.00018903 0.00005832
5 1 13.625506 13.448090 26.959994 -0.03119017 0.01410369 -0.01689862 -0.00020581 0.00000274 0.00009134
6 1 26.293990 38.126511 29.180388 0.00423841 -0.02397096 0.00300239 -0.00013878 0.00009138 -0.00001924
7 1 26.308922 10.017898 38.033205 -0.03829067 0.00584318 0.00281927 -0.00005672 -0.00001854 -0.00004467
8 1 32.762454 3.161415 3.257637 -0.02914735 0.02082400 -0.01742345 0.00001548 0.00006818 -0.00003510
9 1 12.728407 13.673147 1.575032 0.01315476 -0.04295165 0.00691511 0.00004589 -0.00003084 -0.00004548
10 1 13.344797 25.900098 5.000577 -0.03212519 -0.00937744 -0.00033727 -0.00006568 -0.00002712 -0.00011659
11 1 18.535059 39.389508 4.392003 -0.06448820 -0.00650948 0.00540712 -0.00016948 -0.00006378 0.00001213
12 1 21.323326 27.577670 30.931203 -0.02736408 0.03931680 -0.01180171 -0.00002341 -0.00006875 0.00006026
13 1 39.305413 38.316847 13.878607 -0.05937751 0.00607548 0.03932424 0.00000575 0.00005504 0.00002427
14 1 29.500163 13.353791 10.683409 0.00989236 -0.03293590 -0.00465010 56.89501500 153.26655559 120.19127398
15 1 42.889160 20.833304 17.658822 0.07223395 -0.02888843 0.04455275 -0.00005992 -0.00012757 -0.00006172
16 1 0.075662 11.623240 32.615874 -0.01636997 -0.01531310 0.06410935 0.00004014 0.00003499 -0.00008223
17 1 4.592285 37.408242 5.857019 -0.02179935 -0.04261175 -0.00059749 0.00008283 -0.00020342 -0.00003157
18 1 41.118869 33.136910 32.763616 -0.05506056 0.01992173 -0.00718105 -2030.05154973 1713.92003769 1473.99599630
19 1 39.319759 22.203633 1.486427 -0.03020093 -0.00851956 -0.01437682 -0.00000268 0.00011952 0.00001262
20 1 40.452323 19.401137 32.975943 -0.04249197 0.04049221 0.00746935 0.00007967 -0.00003370 0.00023720
21 1 6.755136 39.941335 41.258970 -0.00126259 -0.00989848 -0.03184483 0.00012126 0.00015459 -0.00008965
22 1 20.759833 25.802261 0.409227 0.02734720 -0.01136636 0.02979768 -0.00009680 0.00002864 0.00000990
23 1 35.603908 29.491967 9.036127 -0.01199447 0.00517741 0.02481155 -0.00000874 -0.00025373 0.00008955
24 1 12.325731 28.687249 40.836147 0.00435129 -0.03215059 -0.04141616 0.00000422 0.00014499 0.00003299
25 1 39.874417 42.323150 0.528875 0.02746629 0.04128988 -0.03383841 0.00011488 -0.00007591 -0.00001020
26 1 31.399689 35.794754 1.517467 -0.00165781 0.00089549 -0.05455668 0.00004009 -0.00002395 -0.00013024
27 1 19.795077 8.486105 30.705200 0.03462900 0.01314876 -0.03188048 0.00014243 0.00013623 0.00007805
28 1 26.168333 13.598585 20.102048 -0.01794565 -0.01086797 0.00930137 -0.00006632 0.00004727 -0.00001520
29 1 16.274653 7.176291 29.909524 -0.04379111 -0.02968398 -0.04465128 0.00015500 -0.00007211 -0.00001785
30 1 34.025553 14.160409 24.980186 -0.03243252 -0.03677442 -0.02614734 -0.00010133 0.00001988 -0.00005269
31 1 7.354511 42.516813 42.007448 0.00506092 -0.02681574 0.04726335 -0.00014858 0.00000134 0.00015918
32 1 33.828603 21.976048 35.748827 -0.03135112 0.01789790 -0.05738115 -0.00003337 0.00007329 0.00000942
33 1 33.994332 34.099171 4.159471 -0.03301018 0.05634457 -0.02200963 0.00017509 -0.00000155 0.00011622
34 1 8.889208 11.955308 12.332614 -0.02923844 -0.04284306 0.02506046 1135.87422864 -2721.58187473 -1909.35439801
35 1 27.509508 33.621816 38.524616 0.01501368 -0.04665466 -0.00256260 0.00023326 -0.00013243 0.00010219
36 1 8.419297 0.379541 33.629609 -0.04945592 0.01934196 -0.03455969 -0.00010020 -0.00010974 0.00004639
37 1 25.552293 42.509472 12.106380 0.03130659 -0.00649396 -0.00851153 -0.00001675 -0.00011057 -0.00011213
38 1 34.708905 34.199222 28.111710 -0.01395891 0.00942519 -0.00786278 -0.00012095 0.00005035 -0.00008403
39 1 42.652042 26.619893 0.224523 0.00973948 -0.04245299 -0.03102480 -0.00014387 0.00000764 -0.00013825
40 1 17.708448 40.432242 24.731972 -0.00824750 -0.02214013 -0.03447619 0.00000968 -0.00007458 -0.00006272
41 1 3.361263 5.790678 39.181150 -0.01031465 0.04311876 0.01762569 0.00004263 -0.00001273 -0.00000495
42 1 37.387223 2.426827 25.148785 0.02284319 0.01918059 -0.02324926 -0.00011651 -0.00002972 -0.00002189
43 1 26.308161 12.367276 18.024261 -0.01842431 -0.01674680 0.00790668 0.00002058 -0.00007559 0.00005944
44 1 41.631501 6.732000 5.208232 0.09356509 -0.00162648 -0.01973377 -0.00023060 0.00003512 -0.00008685
45 1 1.064198 10.368492 41.759410 -0.06241244 -0.01302536 -0.00445325 0.00012548 -0.00003648 0.00005142
46 1 5.159948 27.635254 6.823900 -0.02237249 0.00168947 -0.01046196 19603.33622875 -1700.47984958 -22823.85004443
47 1 30.937478 13.766397 27.583467 -0.00537436 0.01874596 -0.01317130 0.00011605 0.00003976 -0.00004853
48 1 35.075285 31.193339 18.783289 -0.02665423 0.01437309 -0.01794337 0.00008248 0.00018002 -0.00000620
49 1 40.383010 11.618061 9.087972 -0.01306805 -0.01829180 0.00216607 -0.00007064 -0.00006182 -0.00005124
50 1 25.273637 10.449763 35.729608 0.00000792 -0.02959611 -0.04748500 -0.00009117 -0.00006775 0.00007655
51 1 33.874731 13.942075 17.376597 0.01857698 0.03048925 -0.00854753 0.00017626 -0.00012035 -0.00000440
52 1 13.994573 33.073467 1.428722 0.01423896 0.02776564 -0.01004972 0.00003298 -0.00003233 0.00009043
53 1 22.898949 9.913594 36.711974 0.01841827 0.05259798 -0.00550426 0.00002810 0.00000118 -0.00006226
54 1 9.282972 15.044611 39.117550 -0.01189592 0.05311240 0.00620941 -0.00007071 0.00002798 0.00002092
55 1 1.495499 35.540924 14.757113 -0.00522004 -0.02622757 0.03973734 0.00009434 0.00002866 -0.00013568
56 1 24.188782 27.915232 23.691328 -0.03424432 -0.04380427 0.00276668 0.00005269 0.00001135 -0.00004129
57 1 7.517864 38.564177 36.170579 0.01059464 0.05783774 -0.01238644 -0.00012498 0.00004572 -0.00000341
58 1 30.261564 12.921231 5.229987 -0.01915538 0.01509475 0.01018676 0.00007513 0.00009360 -0.00003642
59 1 3.530419 15.369199 9.594578 -0.06252245 -0.01100271 0.01416758 -0.00014499 -0.00010654 -0.00008814
60 1 13.416971 31.201923 14.261633 0.02758489 -0.00447503 -0.03577323 0.00002900 -0.00003773 0.00002336
61 1 14.152409 18.015698 1.313793 0.06117242 0.01107063 -0.01986164 0.00003814 -0.00026709 0.00005738
62 1 6.152954 41.088684 8.765532 0.03631187 0.01858384 0.01371309 0.00002077 -0.00001208 -0.00001787
63 1 8.007519 10.834080 6.471122 0.01793898 0.01811644 0.02680797 0.00008424 -0.00014101 -0.00028251
64 1 34.909851 0.776151 26.068164 -0.05132958 0.01368921 -0.03270977 0.00007818 0.00006323 0.00007104
65 1 39.463706 25.198744 34.414770 -0.01370171 -0.06202706 0.02439028 0.00011962 -0.00006878 -0.00009675
66 1 23.807706 18.177914 30.691626 0.02505512 0.02880564 -0.04543829 385.17537194 497.96622938 708.14990967
67 1 30.018249 0.935236 7.723271 0.03674440 0.02936124 0.01474335 -0.00001247 -0.00003220 -0.00003594
68 1 16.178969 3.744953 24.504345 -0.04152904 0.01425530 -0.02554610 0.00014515 0.00006988 -0.00004570
69 1 19.304142 9.997677 17.414407 0.00834871 -0.09106343 0.02190822 -773.39204431 2584.00329019 -358.70231184
70 1 1.396982 20.868292 27.984935 -0.00909220 -0.02896166 0.00064054 -0.00014997 0.00001708 0.00000223
71 1 7.365034 32.994805 40.129955 0.07636795 0.03815503 -0.02156760 -0.00003570 -0.00003601 -0.00005612
72 1 5.207739 22.043577 11.249112 -0.02337208 0.02706348 -0.00445042 -0.00011722 -0.00008159 -0.00000638
73 1 14.541038 28.351758 11.829198 0.01158390 -0.04972902 -0.02016861 0.00006169 -0.00019511 0.00023828
74 1 21.945360 17.857528 39.957075 0.02474878 0.00781047 0.06427557 0.00003878 -0.00026880 0.00007122
75 1 25.302223 42.769238 16.896352 -0.05153109 0.02059885 0.00352884 0.00001723 0.00016836 0.00014091
76 1 6.882644 9.591439 40.063238 0.02339908 0.03093171 -0.00180182 0.00016105 0.00014033 -0.00008634
77 1 4.504293 20.037608 38.132452 -0.01828231 -0.02639183 0.00317775 0.00002646 0.00004037 0.00003514
78 1 14.307448 9.828393 6.438035 -0.06021104 0.00497675 0.02609113 -0.00015053 -0.00011811 0.00008210
79 1 2.276980 23.406150 26.698663 0.00633695 -0.02758742 -0.00346273 -0.00007207 0.00002694 0.00005022
80 1 33.248937 6.429504 1.156888 0.01735467 0.02718537 -0.01106292 0.00011042 -0.00007903 -0.00013316
81 1 8.373920 9.146240 16.653858 -0.00619997 0.03400123 0.02877413 0.00011203 -0.00006172 0.00033786
82 1 40.387555 37.947121 40.653894 -0.03183708 -0.00982227 0.00926622 -0.00002220 -0.00019276 0.00011538
83 1 39.963735 32.961375 23.573317 0.01600303 0.03692139 -0.03887644 0.00005896 0.00011488 -0.00011230
84 1 7.244055 19.787117 24.725620 0.02621513 -0.02319031 0.08250927 0.00015820 0.00017029 -0.00002463
85 1 32.257869 18.809792 23.892244 -0.03848841 -0.05040932 -0.04132789 -0.00009624 -0.00013291 -0.00008796
86 1 41.233599 2.137074 35.312009 0.06013866 -0.00593350 0.01827465 0.00022592 -0.00023522 0.00012512
87 1 12.845021 15.365146 13.669127 0.05635178 -0.02222937 -0.01188874 1973894.41422536 -2541220.16383700 -568904.56499831
88 1 6.669320 35.581468 35.547644 -0.00579158 -0.00324544 0.01206836 -0.00006490 0.00008032 -0.00002329
89 1 33.437499 7.584518 12.275408 0.00293302 -0.03240591 0.00120604 0.00000980 -0.00009965 0.00018711
90 1 9.338530 2.709111 6.524526 -0.05157456 0.03966771 -0.00938002 -0.00001482 0.00015741 -0.00001953
91 1 36.765713 35.305667 41.077872 -0.02205351 -0.00159990 0.03310137 -0.00010144 0.00009562 0.00025908
92 1 19.261747 22.141924 18.666545 0.02291567 -0.03435817 0.01285503 -0.00000844 0.00000183 -0.00000368
93 1 22.294383 35.056921 17.033264 0.01480887 -0.03205504 -0.03566378 0.00025418 0.00004477 -0.00003226
94 1 7.722731 24.164499 25.086044 -0.03572785 0.01702308 0.04934300 0.00005653 -0.00008401 0.00003304
95 1 0.313798 6.386979 30.915907 0.02023489 0.00845699 0.02826492 -0.00005958 -0.00005456 -0.00009218
96 1 38.749285 13.605987 10.175122 0.00578275 -0.01452831 0.07547731 -0.00006953 0.00014661 0.00016555
97 1 5.618923 32.973656 21.105830 0.04233770 -0.00568498 0.01189599 -0.00005789 0.00010750 0.00014765
98 1 38.362025 16.955687 37.437672 0.04187511 -0.00600585 -0.01583691 0.00010503 0.00005087 -0.00010161
99 1 22.533598 5.107915 35.505122 0.05756692 0.05585969 0.00012647 -0.00004526 -0.00003309 -0.00014641
100 1 19.990917 30.270125 40.822356 0.02234714 0.00477165 0.02096813 2.90664567 2.19335811 -0.91604200
101 1 9.698369 8.425757 20.920931 0.00322210 -0.06636220 -0.02918270 -0.00000562 -0.00016168 0.00001434
102 1 36.370297 2.009513 41.931105 0.03030088 0.03442717 0.00206178 -0.00004708 0.00002173 -0.00013936
103 1 0.443604 25.888245 3.267358 0.01411686 0.01075498 -0.01395312 -0.00011391 -0.00016800 0.00005699
104 1 33.828221 24.718180 39.246672 -0.02166701 -0.03862506 0.03411256 -0.00003411 0.00010002 -0.00002390
105 1 36.085715 27.747380 35.033894 -0.02269564 0.03997902 0.02987262 -0.00005468 0.00013981 -0.00012575
106 1 5.474458 33.551321 36.666517 -0.01087596 0.01365026 0.00052632 -0.00001735 0.00008652 0.00005008
107 1 21.559183 14.824548 20.275298 0.00363609 0.02284152 -0.06651983 -0.00000781 0.00011012 -0.00008741
108 1 40.804107 42.384755 38.931299 0.03648724 0.05550809 -0.04197337 -0.00003366 0.00005755 -0.00008906
109 1 17.510094 34.716497 14.187664 -0.04461009 -0.03099106 0.02470330 -0.00012780 0.00012010 0.00005745
110 1 28.709238 21.457710 39.231636 0.01395886 0.03764103 0.03195712 -0.00003800 -0.00000731 0.00011461
111 1 10.177634 6.038971 35.679421 0.03423186 -0.03000918 -0.00002972 0.29351040 -1.15378114 -2.73275172
112 1 29.198931 40.354239 37.725275 0.01620920 -0.01144445 -0.04153582 0.00010989 0.00012474 -0.00027331
113 1 27.459917 4.366239 20.226606 -0.02362504 -0.06105995 0.00426283 84.01571780 -48.06763480 344.19941341
114 1 4.044718 11.004135 13.157831 -0.02477637 -0.00278290 0.03117251 -0.00032775 -0.00012759 0.00015274
115 1 28.385699 11.062535 9.930698 -0.02437633 0.04708245 -0.00310765 0.02700201 0.05562061 0.01827206
116 1 32.107297 18.208177 15.387229 0.00834650 0.00585732 0.02189101 0.00005000 -0.00006548 0.00005809
117 1 4.412738 11.112472 37.062885 0.07248522 0.02408752 0.05960316 -0.00008140 0.00016894 -0.00010239
118 1 33.114411 26.251971 4.127470 0.01335399 0.02635225 -0.03641351 -0.00022483 0.00007726 0.00001381
119 1 26.690057 23.106704 6.883017 -0.02177961 -0.01471384 0.00230093 -0.00016626 -0.00001463 0.00005483
120 1 12.840139 4.514788 27.120135 0.00645112 -0.01684443 0.00981657 0.00001364 0.00010845 0.00004688
121 1 36.996865 33.136871 42.752488 -0.01331078 -0.02363706 -0.05463952 0.00007794 0.00006364 0.00008691
122 1 41.561531 7.688295 12.269963 0.03564277 -0.00524144 -0.01365229 0.00009775 -0.00007236 0.00002606
123 1 42.715117 4.081536 11.139038 0.03969595 0.04568660 -0.02994251 0.00004639 0.00002151 0.00006125
124 1 14.008305 33.170461 41.395019 0.01022994 -0.02942728 -0.00294135 0.00006556 0.00000140 0.00001443
125 1 26.340156 41.032364 11.941409 0.01430650 -0.06415127 0.02654965 -0.00003259 0.00009045 0.00002306
126 1 11.955019 10.289303 27.836643 0.00342703 -0.02107783 -0.04668645 0.00000791 -0.00013365 0.00004292
127 1 30.949109 22.897685 19.333795 0.01824062 -0.00128251 0.02388675 -0.00000568 0.00012253 0.00002232
128 1 23.631670 26.035683 29.230895 -0.03127658 -0.03640296 0.01854661 -0.00003443 -0.00005601 -0.00015972
129 1 10.198771 10.040896 38.983093 0.01166495 -0.01414482 -0.01548083 -0.00003159 0.00016759 0.00021058
130 1 3.125941 38.238089 3.278803 -0.00898762 0.02551451 0.01660890 -0.00015356 0.00001042 0.00001894
131 1 0.478395 6.976221 14.180990 0.00787333 -0.00976640 0.03334046 0.00006483 0.00017281 0.00015866
132 1 34.274576 14.700696 15.734896 0.00271958 0.03723776 -0.00250871 -451.97369123 375.54860068 -335.02455122
133 1 23.594464 8.677063 42.842739 0.00827829 0.02486911 0.00857117 0.00010904 -0.00019676 -0.00021954
134 1 30.755091 17.010312 39.579192 -0.03073921 -0.00983266 -0.00960777 -0.00001506 -0.00011049 0.00004068
135 1 2.646738 37.777319 40.140581 0.06036225 0.03301539 0.02396301 0.00006962 -0.00001342 -0.00014204
136 1 16.667822 13.220978 26.771740 0.00400522 -0.05317925 0.01382495 0.00004914 0.00004207 -0.00008694
137 1 26.050034 19.192550 32.003108 -0.01877165 -0.01523508 0.03193061 -0.02230435 -0.01013546 -0.01304626
138 1 7.340473 32.446501 34.184408 -0.02695492 0.01013424 0.06287504 0.00003071 0.00001925 0.00011832
139 1 30.028832 38.788253 7.251150 0.04371016 0.00950633 0.01460825 -0.00011686 0.00008309 0.00005429
140 1 27.934657 7.385310 23.059045 -0.00370010 0.00373812 -0.01267795 0.00018791 0.00097206 0.00096096
141 1 17.419705 20.839352 33.263549 -0.04377104 -0.02079670 0.01941534 -0.00001948 -0.00003375 0.00004063
142 1 41.259440 37.227702 34.463495 -0.01243704 0.01490124 -0.00252831 -0.00005978 0.00073017 0.00025116
143 1 36.052247 12.298866 6.562926 0.01346392 -0.02871758 -0.02414126 0.00009740 0.00005002 -0.00009431
144 1 4.808401 35.531408 16.628900 0.02486727 -0.01546124 -0.00083307 0.00007079 0.00001195 0.00011781
145 1 31.476435 15.413208 7.116460 -0.00477256 0.01329269 -0.03584420 0.00033996 0.00019882 -0.00056447
146 1 6.621047 7.514808 10.787417 -0.00837603 0.00461237 -0.02789700 -0.00014158 -0.00036045 -0.00008745
147 1 5.922152 37.191596 28.306112 -0.02185796 -0.05490528 -0.00050925 -0.00003832 0.00000545 -0.00009066
148 1 12.902186 39.974796 0.485392 -0.02620558 0.02649647 -0.01453659 127797.25030992 -203006.07708193 336978.86176472
149 1 23.434525 33.669739 4.241384 -0.02062956 -0.02002740 -0.01052091 -0.00007042 -0.00015593 -0.00011744
150 1 20.276023 20.234135 14.370928 -0.04050385 -0.05596320 0.00157173 0.00002062 0.00018595 0.00000334
151 1 1.918860 22.232344 6.379081 0.00261089 -0.02546336 0.00408791 -0.00004033 -0.00003591 0.00000982
152 1 9.695435 29.452412 6.973307 -0.02593599 0.01940807 -0.00673676 0.00055128 0.00008993 0.00011494
153 1 3.140055 14.205704 22.686903 -0.01243265 -0.01250147 0.04688398 0.00002184 0.00002117 0.00001968
154 1 13.750827 32.613640 19.884774 0.04066120 -0.04606577 0.00675588 0.00009473 -0.00008514 0.00014711
155 1 34.313858 41.789142 35.711319 0.03835229 -0.00391571 0.01268954 0.00004067 -0.00000649 0.00012476
156 1 0.777190 3.042765 33.623324 -0.04923947 -0.02830413 0.01871243 -0.00005660 -0.00022339 0.00003402
157 1 10.257731 42.622743 0.582294 0.00043856 -0.03883129 -0.00378706 -0.00166306 0.00164517 0.00010042
158 1 1.197518 28.157291 27.226279 -0.04584990 -0.01110747 -0.05451487 -0.00002030 -0.00004215 0.00006304
159 1 28.076641 40.561263 42.074203 0.02109182 0.04789751 0.02674571 -0.00018080 -0.00000094 0.00001799
160 1 14.433826 30.315767 25.761507 0.00604666 -0.02443271 0.04486943 -0.00004717 -0.00014656 -0.00014346
161 1 15.386628 35.114529 29.895291 -0.00428256 0.02849572 0.00415273 -0.00020289 -0.00000932 -0.00013211
162 1 41.611990 31.647215 13.047325 -0.00201626 -0.02089636 -0.02342236 -0.00009218 -0.00014575 -0.00009056
163 1 9.259653 27.694034 37.978736 -0.01193974 0.02093870 0.03965798 0.00006278 -0.00003390 0.00000781
164 1 5.258787 1.019545 28.565501 -0.00959094 0.05585052 0.07730427 0.00012876 -0.00001690 -0.00010023
165 1 33.557830 12.752179 32.269316 0.02041310 -0.01350647 0.00803994 0.00002215 -0.00021602 -0.00009030
166 1 34.851246 0.202155 6.231797 -0.05455490 -0.02057011 0.02341357 0.00001476 -0.00003136 0.00000631
167 1 36.393940 18.833342 29.414533 -0.03460094 0.01080252 0.01126395 -0.00030661 -0.00000958 0.00003738
168 1 3.803569 25.368673 5.324818 -0.07049600 0.03439906 0.01810829 0.00149389 0.00254686 0.00183357
169 1 39.462031 5.104679 10.647512 0.01538648 0.04084072 0.00931939 0.00008521 0.00009676 0.00004414
170 1 38.520257 8.807686 33.185083 -0.02242747 0.03418471 -0.02337054 -0.00008019 -0.00020223 0.00005439
171 1 14.279320 36.770855 12.841710 0.01754058 0.01141248 0.01412019 0.00021199 -0.00006819 -0.00008407
172 1 11.444174 32.254531 7.424003 -0.01122030 -0.02125400 0.00699871 0.00009348 -0.00005693 -0.00000660
173 1 33.336191 25.126775 36.282849 0.04962482 -0.03360926 -0.00613134 -0.00022434 0.00011838 -0.00000162
174 1 31.706196 10.296322 10.690127 -0.01503947 -0.00087960 -0.04320430 0.00122837 -0.00181580 0.00001286
175 1 11.253643 10.630571 11.676353 -0.02220651 0.02162065 -0.04254851 -0.02365089 0.01299769 0.00657325
176 1 27.239344 38.562492 13.992477 0.03236695 0.02681878 -0.06836333 -0.00004666 -0.00005418 -0.00015890
177 1 37.657633 0.425880 39.622762 0.00852131 0.02612522 -0.01550802 -0.00014305 -0.00014539 -0.00000849
178 1 40.384673 10.903260 35.619842 0.03704009 -0.07156632 -0.01415938 0.00005587 -0.00009923 -0.00001602
179 1 16.115332 11.920496 1.432538 0.02322501 -0.02128761 0.03052474 0.00012593 0.00004736 0.00005778
180 1 3.007664 20.244838 23.212990 -0.03045569 0.02008741 -0.00877384 0.00011903 0.00012589 -0.00021536
181 1 30.928497 25.249452 38.768295 0.02472291 0.02732346 -0.00233703 0.00004920 0.00006335 0.00003407
182 1 17.627711 27.337498 12.295764 0.02948180 0.01922848 -0.01000108 -0.00012224 -0.00004882 0.00009781
183 1 29.827744 14.214901 35.397684 -0.04145969 0.00371539 -0.04498885 -0.00006745 0.00004034 0.00014803
184 1 12.600674 33.923700 24.393820 -0.03925988 0.00969644 0.03496849 2364.89883138 389.03517885 586.19826894
185 1 38.706224 22.091027 21.354400 -0.02426605 -0.00279018 -0.02340241 0.00013297 -0.00011980 -0.00006486
186 1 42.165972 10.265948 40.026598 -0.01532060 0.00777210 0.01142266 0.00005778 -0.00008461 -0.00013018
187 1 30.363250 16.976963 35.276355 -0.04242788 -0.04333304 0.06281299 90933.46099915 2897033.92782593 -5304356.18713228
188 1 3.020783 40.161271 6.183423 0.02394100 0.01033895 -0.02344583 12559.68598726 -9073.28349908 11479.59489237
189 1 4.843035 12.285816 17.550113 0.03784744 0.02394615 -0.02130273 0.00008422 -0.00002187 0.00007644
190 1 31.774634 15.601278 12.592722 0.00790508 0.01227194 -0.00721020 0.00072534 0.00154255 0.00004334
191 1 4.734605 9.904724 4.801127 0.06571591 0.05862612 0.02551475 -0.00013711 0.00008299 -0.00004964
192 1 11.493860 27.381396 15.228313 0.03475970 0.03053864 -0.02982324 0.00003372 0.00019318 -0.00005106
193 1 38.821964 40.003611 40.674916 0.03668258 -0.00279422 -0.00571648 0.00003063 -0.00000099 0.00019804
194 1 13.291632 28.190268 32.479948 0.03863866 -0.03096993 -0.00358502 0.00020227 -0.00006396 0.00006018
195 1 24.314998 6.718638 33.130226 -0.01625881 0.01629169 0.02675395 13.19466634 1.74067722 -4.05245535
196 1 13.921451 7.075456 22.009505 -0.01342011 -0.01673270 -0.02490245 -0.00008012 0.00007584 0.00018556
197 1 42.519672 40.050313 37.884516 0.02827697 -0.02755083 0.01035744 -0.00011333 -0.00009631 0.00003479
198 1 0.843462 6.790741 6.317498 -0.00064894 0.00515595 -0.03039319 100.68483014 55.64110125 -99.10923466
199 1 10.295111 7.932399 18.807081 0.02636042 -0.00564432 0.01265245 -0.00003042 0.00001166 -0.00002526
200 1 25.066624 26.037954 28.161691 -0.04052414 0.01018704 0.00573392 -0.00009442 0.00010935 0.00010132
201 1 40.708379 8.504760 38.614505 -0.00651008 0.00103939 -0.01051123 -0.00025162 -0.00009006 -0.00007878
202 1 29.412514 41.075564 42.990244 -0.02805414 -0.03535336 0.00978299 -0.00007134 -0.00003401 0.00013603
203 1 32.002673 28.338221 10.478838 -0.01352939 -0.06296238 0.02031498 -0.00014161 -0.00000098 -0.00009774
204 1 9.830219 12.796948 13.469400 -0.01106758 0.01714992 0.01074765 -18.39452431 -16.45195193 -22.22004929
205 1 38.179020 31.840380 2.585933 0.00705549 -0.00987383 0.02270437 -0.00001986 -0.00008014 0.00018944
206 1 29.613859 0.420509 24.685590 -0.01269543 0.01570874 0.00692804 -0.00005366 0.00001146 0.00022420
207 1 40.944642 9.586158 36.020242 -0.01259826 -0.00903382 -0.04112197 0.00008680 0.00003993 0.00007349
208 1 17.327410 7.797285 17.205149 -0.01762422 0.01503931 0.00546299 0.00482781 0.00531639 0.00046176
209 1 24.760411 28.745909 32.161210 0.00209484 -0.04554152 -0.01524233 5822.71270986 -9295.64232230 -53975.29107406
210 1 2.934266 23.649743 7.755137 -0.01167557 0.05180481 -0.03512326 -0.00022969 -0.00055057 0.00019449
211 1 22.012456 3.858695 24.732337 -0.00830762 -0.01715935 -0.04155517 -0.00012279 0.00001807 -0.00000084
212 1 13.689374 12.890750 27.953905 -0.01321858 -0.01888056 0.00739478 0.00016212 0.00000545 -0.00009158
213 1 28.385530 39.369762 23.593087 -0.02639113 -0.06540714 -0.04888096 -0.00017117 -0.00011406 -0.00008270
214 1 31.902923 42.631729 32.168942 0.07200503 -0.00481140 -0.00337506 0.00007210 0.00003742 -0.00007031
215 1 34.983359 28.267192 4.730297 0.02636123 -0.03132695 -0.00797612 0.00004281 0.00012284 -0.00009706
216 1 24.171990 0.197443 31.058971 0.01400367 0.00999845 -0.01316596 -0.00006942 -0.00025245 -0.00012782
217 1 38.833179 41.845864 5.693831 -0.01631854 -0.04034473 0.02968739 -0.00011081 0.00003621 0.00000373
218 1 40.679562 1.615670 10.084881 0.02145339 -0.00670924 -0.02841897 0.00002289 0.00017215 -0.00006888
219 1 12.545621 15.853602 12.268636 0.03229619 -0.01526179 -0.01269186 29.97425128 -48.90105820 140.20873404
220 1 41.446984 36.052183 27.469642 0.02700744 0.02762229 -0.03229058 -0.00006782 0.00012304 -0.00020056
221 1 36.911241 39.864958 19.995195 -0.02822065 0.00294656 -0.01239359 -877.34762297 -800.32759802 701.76315680
222 1 24.476667 19.584327 35.822114 0.02836483 -0.01650643 -0.02477720 0.00001909 0.00013023 0.00035855
223 1 2.479321 33.559675 8.208561 -0.00176108 0.01063172 -0.01932391 -0.00016555 -0.00006701 0.00003933
224 1 31.570849 12.678183 24.409276 0.05285518 -0.02770314 0.02778128 0.00000973 0.00008723 -0.00006585
225 1 13.291568 24.380447 33.444095 -0.04438693 0.02959392 0.02937166 0.00004081 -0.00005777 -0.00007087
226 1 11.906159 11.770150 16.452232 0.04214481 0.02362468 -0.01938711 0.00013181 -0.00052238 0.00057741
227 1 2.449684 2.438670 10.381973 0.03101260 -0.04108838 -0.02125148 411687.08264590 -134895.66289695 450652.67052523
228 1 19.561310 12.532584 10.897445 0.02362646 0.02055098 -0.00802281 0.76714102 -1.23186420 -0.02005741
229 1 28.400788 35.847603 17.418222 0.03402204 -0.01133226 -0.04527944 0.00023590 0.00005166 -0.00014726
230 1 25.415684 34.159404 33.021702 -0.02054162 0.03840120 -0.02905858 0.00011933 0.00018314 0.00008401
231 1 23.482300 32.488804 3.194365 0.01787252 -0.06020368 0.03024593 0.00017290 0.00008997 0.00000696
232 1 6.390279 2.868254 10.222557 0.03655378 0.02387959 -0.00685439 0.00154564 0.00000881 0.00006984
233 1 25.980876 14.618630 13.708199 -0.02918944 -0.02015566 -0.03714577 -0.00044454 0.00017754 0.00022391
234 1 15.525673 7.766310 24.330159 0.02583978 0.02012497 -0.02146981 -0.00026700 0.00011701 -0.00000523
235 1 29.777084 7.872517 38.428132 0.00131589 -0.02647636 0.02156905 0.00010144 0.00002094 -0.00017839
236 1 17.146993 24.625441 4.181340 -0.01346962 -0.00443141 0.04785449 -396.28611361 150.36962689 182.59842607
237 1 1.760302 19.128295 18.141965 -0.03986263 -0.00823476 0.06341625 0.00012671 -0.00006469 0.00000520
238 1 27.625980 3.751191 7.678019 0.06552449 0.00670026 0.00139965 -0.00012751 0.00010699 -0.00009868
239 1 26.430962 12.459927 42.117773 0.00584693 0.01016871 0.02910411 0.00013845 -0.00000766 -0.00014052
240 1 15.696727 6.033040 2.107642 -0.04216906 0.02418590 -0.01964908 -0.00002516 0.00001134 0.00006732
241 1 17.582316 43.007928 1.303083 -0.03593932 -0.01777957 -0.01481057 0.00004827 -0.00001407 0.00024300
242 1 33.781269 28.237182 16.564877 0.04386589 -0.01490703 -0.02970054 1688.98282716 4899.21930702 -2183.95952321
243 1 5.563624 19.711941 17.772183 -0.03076672 0.00058352 0.01437208 0.00009002 -0.00008664 0.00016086
244 1 29.826459 27.037054 36.212800 -0.00426099 -0.01941025 0.02799166 0.00011579 -0.00000039 0.00018971
245 1 27.982180 15.960600 0.727658 0.02665032 -0.04795468 -0.04891301 -0.00003975 -0.00013620 0.00009401
246 1 7.971835 4.851696 5.508581 0.05350649 -0.00442235 -0.00358689 -0.00020702 0.00007988 -0.00017909
247 1 3.193880 18.904454 23.767204 -0.05222017 -0.01630306 -0.04177637 -0.00025086 0.00004991 -0.00012130
248 1 28.640137 2.276220 38.946248 -0.04719792 -0.05409129 0.03617045 -0.00002878 0.00007741 0.00009032
249 1 32.472838 25.349890 23.871797 -0.00764252 -0.03076134 -0.00454843 -0.00008716 0.00007247 -0.00005730
250 1 24.509898 3.011050 42.724532 -0.02311462 -0.01167144 0.01845940 -0.00012550 -0.00007138 -0.00001698
251 1 4.146845 7.177174 12.487526 0.01806417 -0.02227464 0.00758178 0.00002924 0.00012689 0.00000437
252 1 2.009885 14.864368 8.485698 0.01774052 -0.00203571 -0.03617730 0.00000518 0.00001902 0.00004279
253 1 38.768680 34.169823 42.054643 -0.01625157 0.10668228 -0.01233244 -0.00003662 0.00001813 -0.00025648
254 1 11.341304 35.359553 18.692511 0.01978561 0.01509151 -0.02711819 -0.00008270 -0.00000159 0.00012469
255 1 8.875319 3.404646 5.990696 0.01286692 0.01405772 0.01235022 -0.00013243 0.00016191 -0.00013341
256 1 19.925632 38.128644 5.446039 0.05367041 -0.04350453 0.03497720 -0.00007141 -0.00014603 0.00000702
257 1 8.739971 15.794056 40.410621 0.05412465 -0.04662857 -0.01176395 -0.00012367 -0.00007082 0.00000584
258 1 25.180950 41.374770 35.549000 -0.00351642 -0.00668801 0.02133159 -47.10842171 -132.07798510 -110.00355336
259 1 36.381511 26.700992 28.599828 0.01970472 -0.02917858 0.00543114 -0.00000666 -0.00001273 -0.00018953
260 1 19.133463 12.770476 5.919999 0.03784998 -0.01234173 0.00695596 0.00011868 -0.00012877 -0.00022410
261 1 33.836471 28.523327 13.465384 0.01382602 0.01274540 -0.02982627 0.00010865 -0.00010006 0.00083573
262 1 10.642026 33.325119 31.054444 0.05740212 0.02429508 -0.00153804 0.00019728 -0.00002424 0.00010372
263 1 21.507249 23.714037 40.516786 0.06915069 0.00879227 0.02121304 -0.00015857 -0.00016110 0.00000801
264 1 6.396545 38.552313 31.914561 -0.02230815 0.02905609 0.04041286 0.00008967 -0.00016817 -0.00004549
265 1 39.516471 5.849156 0.726834 -0.03991656 -0.00258363 0.00178230 -0.00014921 0.00005239 0.00001962
266 1 27.561089 11.539419 28.053660 0.00442566 -0.00213619 0.05206749 -0.00002670 0.00002628 0.00004425
267 1 9.139467 2.215815 31.457405 -0.02162200 -0.04514542 -0.06785404 0.00006431 -0.00020451 -0.00017923
268 1 38.658222 26.711663 26.770876 -0.02973286 -0.00088815 0.00575678 0.00018149 0.00012320 -0.00002404
269 1 40.730668 31.942161 39.180193 0.03576052 -0.01936144 0.00433036 -0.00002164 -0.00005584 0.00018526
270 1 40.102947 16.120721 27.273610 0.03512695 -0.02519529 -0.00046154 0.00012462 0.00008732 -0.00005029
271 1 0.503441 20.426043 25.365757 0.03752298 -0.05482637 -0.01168594 -0.00012289 0.00015402 0.00012783
272 1 10.119996 27.348282 33.132525 0.04241155 -0.04794295 -0.01042502 0.00023273 0.00000647 0.00016310
273 1 19.621958 13.855519 28.002554 -0.01525591 0.04277788 0.01787318 -0.00006910 0.00001824 -0.00010917
274 1 3.616371 11.177853 31.736677 0.01249704 0.01595590 -0.04535620 -0.00004653 -0.00002844 0.00003920
275 1 24.933906 34.486383 35.304999 -0.04661022 -0.00300830 -0.00476833 -0.00003783 -0.00007010 0.00009335
276 1 40.222041 40.254670 42.391237 0.00373018 -0.05965639 0.01329907 -0.00006614 -0.00004484 -0.00008559
277 1 22.799157 33.249476 13.840879 -0.03190857 -0.00189159 0.01349683 0.00016327 0.00003361 0.00003527
278 1 12.978834 4.834239 27.536850 -0.06880613 -0.03892784 -0.02891665 0.00011581 -0.00000262 0.00012096
279 1 14.635711 31.347775 20.269792 -0.03014464 0.00185851 0.00579418 -0.00015307 -0.00025160 -0.00014877
280 1 27.865742 34.802976 24.009652 -0.01255111 -0.02226494 0.05292938 0.00008993 -0.00009870 0.00001036
281 1 3.225821 20.782619 14.300875 -0.00147982 -0.02063379 0.00483568 -0.00004855 -0.00022189 0.00003233
282 1 25.099895 0.333400 33.357845 0.00494496 0.00375891 0.00115373 0.00015222 -0.00534286 0.00596885
283 1 7.490707 17.872365 5.201180 0.01010159 0.04026162 0.01815788 0.00003756 0.00000202 0.00004682
284 1 29.835713 38.199249 29.777764 -0.00469599 -0.02082634 0.01940391 0.00010213 -0.00007017 0.00004523
285 1 28.973563 20.039161 41.976954 0.00499799 0.03399028 0.02682805 -0.00010665 0.00000052 0.00004936