ITEM: TIMESTEP
0
ITEM: NUMBER OF ATOMS
3121
ITEM: BOX BOUNDS pp pp pp
0.0 36.445131
0.0 36.445131
0.0 36.445131
ITEM: ATOMS id type x y z vx vy vz fx fy fz
1 1 36.056106 33.954595 31.034110 -0.00866527 -0.02036169 -0.02667991 0.00007694 -0.00019581 -0.00000414
2 1 31.850581 23.502653 15.612954 0.03654692 0.00005112 0.05009935 -0.00004940 -0.00014899 -0.00018610
3 1 12.179498 0.672077 28.075630 -0.01161378 -0.03261967 0.05279948 0.00002255 0.00007380 -0.00007690
4 1 31.045923 22.943239 26.064532 -0.02685630 0.01122859 -0.02235673 -0.00004288 0.00013911 0.00005432
5 1 5.657003 30.613781 7.195671 0.00827282 -0.03572500 -0.03674684 0.00007508 0.00029081 0.00002808
6 1 5.264798 2.947584 35.441189 -0.01733587 0.00434377 0.03548630 1.58898166 1.66147727 -7.66659893
7 1 20.252625 19.541723 36.349304 0.01884176 0.01583330 0.04857990 0.00015357 -0.00004648 0.00012113
8 1 4.598626 30.117879 21.553679 0.05109302 -0.01410578 0.03541696 -0.00006562 -0.00011578 0.00002907
9 1 28.732315 22.936264 14.518049 0.00705280 -0.01456374 0.03311529 0.00009612 0.00004997 0.00006255
10 1 35.471221 17.819852 7.419996 -0.02968549 0.03673422 -0.00913019 0.00010775 -0.00001491 0.00003406
11 1 12.168819 0.938736 33.474180 0.00153636 -0.03066285 0.00356786 0.00002840 0.00004814 0.00015598
12 1 14.904491 21.261726 25.044715 0.02708002 -0.02695824 -0.05590384 -0.00007593 -0.00005792 0.00010395
13 1 9.834893 32.769133 9.789920 0.02943338 -0.06275988 0.03073012 64674927.72064421 -8693633.19510477 -179547781.84668854
14 1 13.925383 23.446361 33.870512 0.01733753 -0.00055869 0.05822998 0.00014766 0.00009322 -0.00008875
15 1 0.253107 9.578512 18.310636 0.04045889 0.01081256 -0.07761936 -0.00016361 0.00007510 0.00014200
16 1 0.627374 14.084752 19.484691 -0.00105038 0.02284985 -0.03905826 -0.00012770 0.00011372 -0.00004810
17 1 21.522771 13.957578 14.130894 0.02078873 -0.01235822 -0.00616708 -0.00002457 0.00011965 -0.00001930
18 1 28.266724 16.523664 16.373432 -0.01246908 -0.00180629 -0.03296370 0.00004700 -0.00000751 -0.00005500
19 1 30.060676 10.630365 27.442003 -0.01318698 0.01750210 -0.00424769 -0.00011388 0.00002982 0.00014166
20 1 13.677127 27.830499 14.361774 -0.03800617 0.02471325 -0.04904616 -0.00004533 0.00016086 -0.00012975
21 1 25.613419 30.076068 25.921430 -0.00962104 0.00940371 0.00044135 0.00012280 -0.00011392 0.00005129
22 1 33.118971 29.099149 20.270885 0.00034850 -0.01436739 -0.04691266 0.00003673 -0.00005066 0.00010542
23 1 3.085596 14.658784 20.338767 -0.05463508 0.01017224 0.00735269 0.00022182 0.00007057 0.00010401
24 1 31.105984 4.093225 24.250652 0.02680565 0.00454611 0.06174437 -0.00000752 0.00010543 -0.00005889
25 1 18.575296 24.651973 24.076542 -0.05051018 -0.03265653 -0.03545613 5211.52831315 10000.08918028 -21019.56110123
26 1 29.377189 17.613664 18.620294 -0.02873978 -0.09407766 -0.05097763 -0.00001523 0.00013984 -0.00008289
27 1 28.659516 6.792016 28.980462 0.04622567 0.02435663 0.00169894 0.00003945 0.00004136 0.00005809
28 1 29.475838 32.238835 7.861252 0.00758487 -0.01369460 0.04367584 0.00000729 -0.00003436 0.00002863
29 1 8.800998 12.975684 2.848131 -0.03035604 -0.01017084 -0.01830107 -0.00003955 -0.00000473 -0.00023350
30 1 1.592435 2.829723 31.497372 -0.01258489 0.00072534 0.01724755 -2223.17910598 21783.73938020 3469.47953534
31 1 35.441225 24.549529 21.629799 -0.02742107 0.03771464 -0.00389359 -0.00012751 0.00005296 -0.00005212
32 1 35.593196 24.736743 12.997934 -0.04292220 -0.02629073 0.01748496 0.00004574 -0.00001200 0.00008615
33 1 21.323283 25.106802 22.845502 0.01432548 -0.03367594 0.00048251 -0.00267707 -0.00054819 0.00106803
34 1 19.381732 3.366152 10.665763 0.00233266 0.02317974 -0.01399684 1125.10742857 -2920.87544789 -1667.15582976
35 1 24.793750 14.275060 4.403659 -0.01532381 -0.04825483 0.03685913 -0.00010980 0.00000321 -0.00019218
36 1 17.385225 30.752591 15.626548 -0.01794756 -0.01376066 -0.03050453 -0.00008970 0.00019341 -0.00015030
37 1 6.030785 6.888258 28.535923 0.01915901 0.01359749 -0.02636911 0.00005924 -0.00004941 -0.00004424
38 1 6.147220 32.827035 21.669730 0.02827742 -0.01702615 -0.03132941 -0.00014002 0.00012508 0.00000651
39 1 6.969747 13.177711 9.466166 -0.04135782 0.01645252 0.00471770 -0.00011048 0.00000849 -0.00000034
40 1 23.701971 1.550052 21.258285 -0.01344681 0.03921958 -0.04644067 -0.00021140 -0.00006391 0.00010715
41 1 11.588746 15.170279 28.116791 0.01096313 0.00750502 -0.02933066 -0.00010625 -0.00014761 0.00008355
42 1 8.111483 2.981143 24.046513 0.02813859 0.00475017 -0.03120046 0.00003425 -0.00005160 0.00009076
43 1 13.390636 24.421795 30.844209 -0.05751746 -0.01588416 0.04169560 0.00007478 -0.00015719 0.00008405
44 1 30.643759 6.037154 12.807776 0.00507636 -0.00634617 -0.00618538 0.00011791 -0.00014732 0.00003904
45 1 20.013068 10.215345 6.130039 0.02117584 -0.02252331 0.01607643 0.00010930 -0.00010653 0.00015431
46 1 5.164250 17.446512 14.877071 0.05130003 0.02039961 0.00266793 0.00004386 -0.00000255 0.00002272
47 1 26.133409 14.888662 31.416704 0.02189922 0.05555057 -0.03482076 0.00014886 -0.00003901 0.00003705
48 1 13.992592 10.969638 5.267107 -0.00439421 -0.07709888 0.00671070 0.00004547 0.00003431 -0.00003829
49 1 3.472885 16.031574 26.468276 -0.01352338 0.00902670 -0.08310107 -0.00001159 -0.00008327 -0.00013570
50 1 11.246847 20.919903 0.809031 0.04235916 0.00583110 0.03015091 -0.00006772 -0.00002192 -0.00005070
51 1 20.571520 28.837513 3.141880 -0.00562984 -0.07270541 -0.01595500 -74905203.84203851 -47502177.25296824 -26579904.00336831
52 1 26.514640 0.901844 25.290438 -0.01288926 -0.03530661 -0.00003189 -0.00009511 -0.00007612 0.00008701
53 1 20.605846 2.897481 1.507613 -0.00215882 -0.02477069 0.00946683 0.00019097 0.00016341 -0.00002107
54 1 21.362848 18.472658 22.144771 -0.01916626 -0.00050879 -0.02890952 -0.00008420 0.00000263 -0.00006031
55 1 8.117291 18.210269 17.677630 0.01327127 -0.03955023 -0.03431834 -0.00001612 0.00000727 0.00001586
56 1 33.583906 35.212602 7.369141 -0.01802676 -0.00301423 0.01078099 0.00008140 -0.00012652 0.00014308
57 1 17.247687 29.561126 24.334112 -0.01999750 0.01089828 -0.02176415 -0.00011853 0.00033968 0.00008414
58 1 22.664193 2.796880 29.977408 -0.03004961 -0.00834281 -0.00098276 -0.00010058 0.00005858 -0.00000203
59 1 15.784740 26.793257 32.740333 0.06040252 -0.03385191 0.01656650 -0.00016050 0.00002489 -0.00014502
60 1 25.240789 28.998836 36.020782 0.03326260 0.03878597 0.01574772 0.00004120 0.00011871 -0.00006229
61 1 1.504263 25.976827 27.166466 -0.01433999 0.01463365 0.04768037 -0.00010671 -0.00005954 0.00006864
62 1 14.909333 12.348239 15.588606 -0.02899973 0.02809614 -0.00045021 0.00008216 -0.00005874 0.00008595
63 1 17.200524 21.199619 23.009841 -0.03321539 0.00461310 0.00203896 -0.00081272 -0.00169709 -0.00058291
64 1 4.766634 21.243918 25.064073 -0.00348243 0.04893414 -0.01764174 75.83138123 -947.85285090 496.68069286
65 1 10.216359 11.209010 30.629780 0.02585566 0.01661650 0.00630271 -0.00006396 -0.00009343 0.00005631
66 1 10.333900 4.464565 19.774109 0.03424228 -0.02661614 0.01815070 0.00010945 0.00010322 -0.00013691
67 1 29.519055 35.088169 10.313250 -0.01799454 -0.03084307 0.03847773 0.00017790 0.00013405 -0.00014728
68 1 21.966735 31.382696 26.763933 0.04086925 0.00042129 0.01922131 0.00009342 -0.00009489 -0.00009408
69 1 29.510872 14.923536 11.255659 0.01084431 0.01387181 -0.00596667 -0.00010208 -0.00010486 -0.00001842
70 1 4.573467 16.102699 6.003266 -0.02626900 -0.01976053 -0.00367628 -462.82210412 709.76490103 -82.77038392
71 1 18.194014 12.451476 6.720995 -0.01763542 -0.03252940 -0.04918617 -0.00018844 0.00018788 0.00005546
72 1 17.619565 2.732133 25.734279 0.03569856 -0.05996700 -0.01634349 97134.89489002 -96153.01630558 -127960.00638609
73 1 22.451804 25.207731 32.097914 -0.02118110 -0.00018307 -0.01429127 218.69772696 49.80847279 -340.62029412
74 1 17.528383 32.196704 23.500089 0.02155212 -0.03669243 -0.03354446 0.00009689 0.00005541 0.00011351
75 1 34.538135 23.163761 0.706133 -0.05264660 -0.07517613 0.01584362 18.96767156 -7.45610609 1.12825121
76 1 34.322988 11.480974 3.223457 -0.00946061 0.00561799 -0.00992016 0.00004496 0.00006140 0.00009685
77 1 16.073522 22.718139 27.688832 -0.01473526 0.03031399 0.01840181 -0.00017799 -0.00021303 0.00027839
78 1 34.139400 10.805671 23.980010 -0.02348065 0.01064434 0.00376479 -0.00010983 0.00008556 0.00008839
79 1 31.251309 1.627262 35.447751 -0.01008514 -0.00901027 -0.00904078 0.00008836 -0.00006864 0.00001651
80 1 29.822668 22.425378 12.157019 -0.05893150 -0.00524109 0.00768005 0.00011772 -0.00000681 -0.00008842
81 1 7.212932 15.396915 23.488900 -0.03685724 0.02426846 -0.00902854 -0.00007003 -0.00009985 0.00001654
82 1 4.698197 16.479313 31.756930 0.05209080 -0.02291613 -0.00739125 -2.30953467 -19.99016560 -16.37120353
83 1 1.008513 2.766278 25.527129 -0.04539079 0.02448202 0.06281184 -131.66402778 84.51338019 -44.45620815
84 1 3.756198 22.852633 2.561055 0.00019762 0.00719024 0.01333545 0.00011965 -0.00009190 -0.00008891
85 1 9.405142 6.419790 28.585775 0.01627277 0.01412687 -0.03584703 -0.00011045 -0.00011879 -0.00010591
86 1 15.502142 27.591593 25.740944 -0.04716124 -0.00979056 0.01094052 -0.00040016 0.00056205 0.00036802
87 1 22.907104 33.249460 33.040887 0.00938236 0.01659556 -0.02262259 -0.00010106 0.00000660 -0.00011592
88 1 12.633987 18.658360 1.503038 -0.02212078 -0.00624078 -0.01966945 -0.00003626 -0.00011800 -0.00005735
89 1 25.412336 3.091700 12.241906 0.02591664 0.00883710 0.02088903 0.00002348 0.00001401 -0.00001108
90 1 20.984524 34.015614 13.055304 -0.03227336 0.02308609 -0.01396608 -6.65757124 7.73667821 -2.93567866
91 1 0.638963 11.747617 15.212298 -0.01513695 -0.04083628 0.02459421 0.00007727 0.00008678 0.00009813
92 1 31.373393 13.513506 12.726816 -0.01152593 -0.02776538 -0.05761323 -5670.24113043 5248.05282734 -6287.77270130
93 1 3.310860 16.785002 28.654962 -0.01506245 -0.00493746 0.00486530 -0.00120551 0.00000193 -0.00213949
94 1 5.413076 33.512391 11.195990 0.03634156 -0.03556862 0.00968416 -0.00070457 0.00012967 0.00017804
95 1 35.470848 27.948147 5.569483 -0.00239226 -0.03561864 0.02397971 -0.00006325 -0.00008152 -0.00015108
96 1 22.080030 22.408783 35.423089 0.00203320 -0.01179130 0.00493691 -54.87461675 -76.71007204 -32.48580578
97 1 29.873412 31.590241 18.058897 0.05427851 -0.02222572 0.01358655 -0.00016787 -0.00001716 0.00007961
98 1 22.685198 33.403141 33.357223 0.03135357 0.01817805 -0.02896989 -0.00008061 -0.00014162 0.00009600
99 1 0.584360 29.510042 19.965129 -0.00381679 0.01799926 -0.00189817 0.00007146 0.00005457 -0.00009652
100 1 7.417409 8.743993 9.925232 -0.00321698 -0.01511231 0.07072417 0.00010193 0.00015199 0.00015196
101 1 29.121556 6.776498 34.320253 0.02536708 0.00824943 -0.04317419 -0.00017239 0.00023207 0.00019708
102 1 19.265778 22.999855 13.075881 -0.01068737 0.00378324 0.02600534 0.00004510 -0.00002233 0.00007961
103 1 23.830391 6.412008 3.357777 -0.04646884 -0.01036514 0.02654984 -0.00012219 -0.00000979 -0.00002135
104 1 4.941539 11.141903 20.468304 -0.02170800 -0.01228525 0.00756833 86.39152666 -42.19937457 18.69819774
105 1 28.381010 16.283269 4.051392 -0.04108045 0.03890241 0.01651749 0.00015863 -0.00016808 0.00005597
106 1 18.644256 32.794543 11.458349 -0.00293172 0.02214132 -0.01123585 -12776.18768881 398.97242204 19188.28139357
107 1 17.618048 6.317807 15.290393 0.01792183 0.03062931 0.04722540 -751979.49905677 -922405.69498814 -182297.02264543
108 1 30.181021 5.567829 18.199259 -0.05270866 -0.03279773 -0.03247480 29.68538477 -41.77246003 30.06694799
109 1 21.671684 35.154081 10.631785 -0.01180334 0.02797433 -0.01576431 -0.09155834 -0.00133950 0.18671253
110 1 23.152497 18.444660 5.148943 0.01356878 -0.05716157 -0.04617133 -121.87562983 -172.97969272 37.11495659
111 1 8.022646 11.591157 30.038589 -0.01584820 0.02487475 0.03421759 -0.00001800 -0.00018007 0.00010650
112 1 35.920240 34.529037 5.649725 -0.00211572 0.00035339 -0.03117297 0.00000598 0.00008415 0.00012288
113 1 31.430760 30.319770 3.868108 -0.01707029 0.00645901 0.00152754 -1.20179557 -17.10487767 5.72286598
114 1 31.258354 27.539889 3.150605 0.02232673 -0.00699730 0.01102214 0.00082602 0.01449069 0.00388263
115 1 22.098328 22.260572 18.457803 -0.01727248 0.00878756 -0.00234886 0.00012105 -0.00018517 0.00004056
116 1 27.479446 36.094962 31.391269 -0.01733733 -0.00397736 0.05421468 -0.00002395 0.00004988 -0.00005341
117 1 30.973318 28.557005 34.670759 0.02424418 0.00531823 0.01351325 0.00000598 0.00006604 -0.00020891
118 1 27.505510 14.155352 14.414828 -0.04766790 -0.03286889 -0.00244282 -0.00127314 0.00010619 0.00043349
119 1 19.299598 10.045108 18.129021 -0.00885604 -0.05871487 0.01747587 0.00007519 0.00040998 0.00013574
120 1 32.642403 11.448628 10.585294 -0.00829610 -0.05110594 0.01511266 0.00052085 -0.00101390 -0.00090336
121 1 26.741307 5.538979 30.987322 -0.03519343 -0.03961063 0.00966602 -0.00008596 0.00005547 -0.00005382
122 1 19.767452 5.205526 7.724314 0.01701908 -0.02394507 0.00071968 0.00035323 0.00160735 -0.00232792
123 1 5.085649 9.409059 0.046164 0.00830197 0.03927644 0.04171232 0.00007911 0.00013654 0.00004034
124 1 35.025297 26.227914 4.336619 -0.03801439 0.03355638 -0.00590919 0.00025891 0.00032637 0.00040223
125 1 34.757031 5.098979 16.261300 0.03865532 -0.07407624 0.01272606 0.00054733 -0.00026222 -0.00008112
126 1 7.249329 21.489761 16.498674 0.01693391 -0.03397960 0.01411382 0.00013172 0.00004945 0.00001917
127 1 19.737113 5.104693 33.593311 -0.02561467 0.00901468 0.01981884 -0.00010601 0.00002462 0.00004286
128 1 3.220664 7.200595 22.913362 0.00166053 0.02893862 0.03126499 -0.00020456 -0.00011615 0.00008672
129 1 15.669461 6.376918 0.197359 -0.01742603 0.04129483 -0.01026539 -0.00014795 -0.00007314 0.00005117
130 1 36.232619 35.715881 32.920085 0.00144849 0.00394921 -0.00688639 -0.00046855 -0.00075548 0.00049811
131 1 5.635908 15.371672 28.573245 0.03920849 -0.00476363 -0.02266794 0.00061906 -0.00079391 -0.00220583
132 1 11.860728 15.640637 34.570122 0.01767481 0.05542505 -0.02729571 -0.00018107 -0.00001609 0.00009694
133 1 2.939573 36.351333 32.692101 0.04286613 0.01861045 0.00193459 0.00072582 -0.00244854 0.00074019
134 1 4.914417 27.208353 2.227994 0.00529351 0.00041747 -0.01285991 -0.00009984 0.00004575 -0.00010436
135 1 36.437271 34.822432 26.697442 0.00428626 -0.00781839 0.02631901 -0.00021765 -0.00059905 0.00034756
136 1 35.267668 14.988898 12.639588 -0.00989564 0.02873194 0.03079313 0.00130399 0.00056069 -0.00006694
137 1 21.232100 11.390585 17.879579 0.01970127 0.00419491 -0.08006295 -0.00006639 -0.00005268 0.00007312
138 1 21.565305 9.872324 16.933603 0.01337845 0.02197246 0.04165081 -7.14645723 -2.77615071 -1.17243832
139 1 1.052181 8.220672 35.741659 -0.03268054 -0.02551695 -0.01594875 0.00018414 0.00011962 0.00001005
140 1 3.533835 20.659701 3.632237 0.01419712 0.04770260 -0.00489105 -0.00008037 0.00034480 -0.00009958
141 1 19.090611 16.686376 4.851528 0.02264598 -0.02373896 0.01108728 -0.06750244 -0.08826349 0.24342004
142 1 13.832209 6.985297 18.523805 0.00785148 -0.02605263 0.03144152 -0.00034856 0.00007967 0.00025971
143 1 1.797574 34.905328 3.803347 -0.00422493 0.00374647 0.04992257 -0.00000646 -0.00001676 0.00008440
144 1 18.354137 26.974722 20.742903 -0.05888915 0.02130695 -0.03608173 -0.00000185 0.00076017 -0.00112200
145 1 35.170762 33.890127 0.231456 -0.03080600 -0.00403594 0.01504323 -12.72212205 -10.93985125 7.64644883
146 1 29.202486 28.610254 7.487795 -0.01476646 -0.03693778 0.00408805 -0.00029808 -0.00018928 0.00054858
147 1 23.761657 24.329465 19.034857 -0.02180519 0.00724760 0.00815402 0.00003251 0.00006170 0.00006565
148 1 32.802201 35.404457 18.888706 0.00316604 0.03835825 -0.01102259 -57.29232515 150.65930480 122.76698078
149 1 35.769553 18.098080 4.018902 -0.03481169 0.04989680 0.01229983 -0.00003051 0.00020093 -0.00018222
150 1 34.861410 1.348742 18.269117 0.02361414 -0.03402068 -0.00393416 0.00085629 0.00087396 -0.00033477
151 1 11.307394 33.032278 35.797591 -0.00662954 -0.02266752 -0.00282405 0.22529544 2.88526325 3.22926206
152 1 26.152288 35.357538 12.943264 -0.00405107 0.01002118 -0.00809378 43.61424070 51.52675569 24.88299169
153 1 1.967348 1.349094 9.332817 -0.02258926 -0.02896047 -0.01047376 -181.06783032 244.15679557 -303.66102401
154 1 17.134802 20.542292 31.963488 -0.02560293 0.02425526 -0.03993191 0.00011279 -0.00002768 -0.00003512
155 1 8.142781 1.253809 6.630750 -0.03041914 0.00167362 0.00267768 833.18759469 1115.81946801 668.28363749
156 1 14.147656 0.027256 1.932456 -0.00975678 0.01294324 -0.01380568 0.00003725 0.00023403 0.00014472
157 1 35.365446 29.845921 31.050616 -0.02684601 -0.02522120 0.00476423 0.00002708 0.00004480 0.00016878
158 1 0.847060 29.989636 31.414543 0.00858235 -0.02157948 -0.02528761 0.00000569 -0.00010360 -0.00009879
159 1 11.050696 19.778792 12.513853 0.01676361 0.01732001 -0.00853970 0.00007411 0.00001818 -0.00006660
160 1 18.084227 9.309981 0.865428 -0.02924972 -0.01552924 -0.02632489 -106.96895156 -90.45716874 49.48161943
161 1 24.533281 12.050329 2.917890 -0.03275629 0.03740698 -0.01324694 10.97297304 -21.29583843 -10.85960830
162 1 14.000811 26.177293 10.599908 0.01090244 0.01736529 -0.01023120 -0.00007835 -0.00011437 -0.00005541
163 1 8.835080 13.252626 20.579479 -0.07227562 -0.03382431 0.02624491 0.00087107 0.00050872 0.00007614
164 1 16.952501 3.941619 31.126319 -0.00214527 -0.02950235 -0.00892790 -0.00018872 -0.00007570 0.00026390
165 1 3.591173 21.032371 30.032284 -0.01402473 -0.00557347 0.00887146 -0.00028741 0.00031531 0.00015160
166 1 36.097802 17.773582 6.452423 0.06192321 0.03782383 -0.05132225 -0.00020610 0.00018639 0.00010704
167 1 24.245719 36.160179 3.631136 0.00367608 0.01843677 -0.02739412 -0.00011945 0.00002749 0.00015798
168 1 30.901113 0.190595 5.331871 -0.03430438 0.00496069 -0.00611183 -0.00007127 0.00017832 0.00005728
169 1 27.739652 24.761703 18.785307 0.01562572 0.00467609 -0.00215793 -0.00009960 -0.00005545 -0.00014351
170 1 16.696382 1.454520 15.581481 -0.01538474 0.01808431 -0.00955732 -0.00035249 -0.00050775 0.00026527
171 1 10.381557 23.917993 4.686566 0.00088606 -0.00729114 -0.04254103 -1628.94388892 272.45394685 1966.89708938
172 1 20.750620 34.974296 24.830221 0.05532719 -0.00787806 0.00541219 0.00022260 -0.00018666 -0.00021439
173 1 18.781605 1.413426 12.610267 -0.01458019 -0.00965663 -0.01063233 0.00370280 0.01698695 -0.01517586
174 1 4.054463 4.157262 13.010518 0.02169581 0.01939374 -0.03244616 1287.40965145 -1137.55835451 47.29213352
175 1 31.054538 12.270037 23.341070 -0.03665865 0.01848581 0.00028605 5067.71416126 -13692.89189651 2405.53212336
176 1 4.169876 6.226904 31.719393 0.01525419 -0.02960034 -0.02920489 0.00064051 0.00122490 -0.00028435
177 1 21.122959 34.187438 6.054192 0.05532734 -0.01512334 0.04561161 -0.00001876 0.00002380 -0.00077677
178 1 1.113204 8.194228 3.608434 0.01075455 0.02802584 -0.03156547 0.00007569 -0.00006423 -0.00005715
179 1 20.614119 33.098484 25.910175 0.00438908 0.03896633 0.00825520 0.00016354 -0.00019474 -0.00000971
180 1 36.188210 6.470261 14.567839 -0.05142660 -0.03935491 0.00190646 68.85082401 -42.73567422 117.25818384
181 1 26.259664 32.220688 8.264458 -0.00704947 -0.01234002 0.00032209 -58565747.73554222 -66946722.08484808 38461990.11067460
182 1 28.627917 4.407763 27.869973 0.02824101 -0.02982811 -0.08546740 -13653.79900838 -23140.22510561 -2122.40746020
183 1 28.673865 35.487034 35.565793 -0.01166217 0.02285990 0.02427742 0.00000761 -0.00011590 0.00012003
184 1 15.972727 5.195228 25.912557 -0.02874735 -0.02419877 -0.00096144 -31.34185173 -37.42527191 39.57829443
185 1 14.242032 32.865129 21.407211 -0.03387346 0.00891046 -0.05992458 -0.00000501 0.00007014 -0.00017050
186 1 31.130570 25.942746 7.213339 0.01821819 0.01458464 -0.03338327 -0.00008558 -0.00019020 0.00000970
187 1 14.551365 9.780302 6.239076 -0.03263022 0.02733683 0.01159156 -0.00000328 -0.00000777 -0.00003791
188 1 35.341905 32.698342 7.416841 0.00379084 -0.01922996 -0.01689842 4759665.50014866 -2897418.86990752 -156446.90537705
189 1 14.679511 8.278662 20.366683 0.03689092 -0.01571752 -0.03818764 -0.00011349 0.00004771 -0.00019749
190 1 35.599403 1.891748 6.753857 0.00723105 -0.05290617 0.00428386 14.77340238 80.37463291 101.33631985
191 1 1.246723 24.188759 17.366493 -0.03285167 0.05198861 -0.02812612 0.00006133 0.00010823 -0.00005625
192 1 20.429244 7.547149 2.328859 -0.00702474 -0.02585303 -0.00882564 0.00104681 -0.00112729 0.00092613
193 1 30.640292 7.486319 19.210042 -0.02883597 -0.02115414 -0.05520309 156.78574884 4.42403992 9.56399169
194 1 10.649598 4.087649 11.023476 0.00822476 -0.04005197 -0.01558867 0.00016310 0.00003124 0.00025270
195 1 15.575278 7.019758 7.175342 0.01739330 -0.01020960 0.00121635 -19702533.62951895 4699235.57274602 -79427813.37892115
196 1 24.160775 9.174106 22.103283 0.00320696 0.01931318 0.03683390 -0.00008720 -0.00011797 0.00012635
197 1 10.342746 23.848844 8.447319 -0.01419367 0.02760721 0.02487993 -0.00007096 -0.00007515 0.00227047
198 1 28.802397 8.262837 16.869489 0.00670324 0.01169525 0.03018899 0.00018432 0.00124071 0.00056346
199 1 13.516531 14.044856 35.140796 0.00872790 0.00919712 -0.00601585 -0.00012721 0.00006009 -0.00000218
200 1 5.091857 18.017252 13.859646 0.01681651 0.02285468 -0.03334543 -0.00003223 0.00007370 -0.00002108
201 1 18.061215 5.306902 4.916530 0.01517115 0.00682912 -0.03824250 0.00133639 -0.00104683 -0.00114470
202 1 17.305888 5.856180 24.011468 0.02597260 -0.05228825 -0.02587609 -0.15533176 -0.07467618 0.21998097
203 1 0.183146 24.177835 6.387468 0.03987404 0.01491561 0.01457920 0.00005164 0.00000786 -0.00007533
204 1 23.692177 15.940945 19.002613 -0.01056143 0.03894429 -0.00851360 -0.00002414 -0.00007667 0.00003727
205 1 36.139184 30.113650 12.613621 0.00799537 -0.01633573 -0.03328678 0.00002895 -0.00022365 0.00009503
206 1 0.806054 26.599085 11.243218 0.00997880 -0.00849137 -0.03133578 -7.12185025 -3.87668400 -1.01502190
207 1 2.339671 10.177883 12.662002 -0.01874337 -0.02011825 0.01430890 0.00010463 0.00044844 -0.00012293
208 1 35.690776 25.598050 10.610220 -0.04110362 0.01816559 -0.01738492 4.00693554 2.57069801 1.62550707
209 1 19.952533 29.325367 1.185043 0.02059738 0.03131793 -0.00889722 0.54405595 -0.42872150 1.71941693
210 1 23.169222 13.272073 34.594722 0.03293789 -0.06126585 -0.00713188 -35125.17235133 -1936.69782172 1733.10880217
211 1 6.005006 4.077401 28.145483 -0.01895978 0.00758783 0.02153825 0.00040991 0.00011702 0.00003516
212 1 3.874195 7.759838 8.100410 0.00190299 -0.04748540 0.01552194 0.00018211 0.00036952 -0.00016577
213 1 27.730937 25.190385 24.254897 0.02101750 0.05622063 0.04785655 -0.00006390 -0.00017920 0.00009035
214 1 27.402876 8.889041 0.605197 -0.02399282 0.02093807 0.05624523 0.00029769 -0.00045067 -0.00020462
215 1 0.969012 26.057403 27.486479 -0.01390937 -0.00181437 0.00876411 -0.00005207 0.00011795 0.00011903
216 1 23.500547 17.458750 11.740553 -0.04745562 -0.03310960 0.00290592 -28299.40819768 7745.24900962 3920.06007070
217 1 1.813785 28.027915 3.990646 -0.00506615 0.00487330 0.03274402 0.00008381 0.00006506 -0.00011929
218 1 20.480972 7.945119 22.054322 -0.05244774 0.01265685 -0.03041234 0.00014609 0.00004302 0.00017330
219 1 19.872130 33.836219 33.441796 0.02354216 0.03345372 0.01604936 -0.00009433 0.00006813 0.00006627
220 1 33.950241 23.795290 2.517228 0.04113207 0.00344347 0.02479760 1.07213021 -1.15130741 -3.30219700
221 1 7.907228 23.998899 10.623329 0.02508302 0.01468730 -0.03914578 0.00009437 -0.00001925 0.00001374
222 1 24.006733 16.372648 8.125188 -0.03219678 0.02961917 0.02820760 0.00099638 -0.00193473 0.00008926
223 1 19.830123 31.075001 22.704351 -0.00512049 0.01411924 0.05173266 -0.00017287 -0.00005449 0.00010649
224 1 9.215561 14.062243 35.508175 0.00610383 -0.01259599 -0.00089306 0.00004605 -0.00006439 0.00015903
225 1 23.440346 24.006884 9.686284 0.00865757 0.00162521 0.03649350 0.00001351 -0.00004024 -0.00006543
226 1 25.090607 10.265048 19.018844 0.00337516 -0.01844419 -0.01638954 0.00105637 0.00013090 0.00068124
227 1 5.383514 15.086907 8.393441 -0.02121894 0.00763328 -0.00638801 -0.01277316 0.01619799 -0.03832590
228 1 13.410279 8.036590 7.094962 -0.02333690 0.00732109 0.01529346 0.28803943 -0.13524963 0.01069026
229 1 29.794235 31.555244 22.054502 0.02519381 -0.00748949 -0.03435249 -682.50578118 55.97547752 852.40315277
230 1 30.908671 23.277183 22.773590 -0.01345078 -0.00238387 -0.04551419 -8.67253202 -16.03056341 28.61594109
231 1 12.138956 28.792140 6.082535 0.01481158 0.00332763 -0.01466315 0.00016737 0.00024124 -0.00002003
232 1 20.473498 30.428995 10.325675 0.00301760 -0.02648339 -0.04849484 -12827.79619972 -2189.13909966 132619.22974176
233 1 30.946869 17.262776 20.379363 0.02323872 -0.00752521 0.01756975 960.94095079 -8192.28136284 -6146.51675203
234 1 7.486070 0.370552 17.132320 -0.01318100 -0.01725505 -0.02427569 0.00013398 -0.00017975 0.00003409
235 1 5.413912 1.051300 6.035929 -0.03287976 -0.05551876 -0.05444556 2082.70027426 365.07651409 2264.62207426
236 1 18.098417 0.292096 8.884303 0.00080365 0.04211677 -0.01716452 -0.00194416 -0.00058086 -0.00199459
237 1 0.075269 16.850835 19.689271 -0.01646996 0.03712682 0.04950068 0.00008875 0.00002980 -0.00021004
238 1 13.760900 21.672271 29.630866 0.00210937 -0.02980462 0.01679046 0.00000667 -0.00003972 0.00010359
239 1 24.279543 3.572829 16.283091 -0.02072576 -0.00033112 -0.03436165 -0.00015477 -0.00021590 0.00021417
240 1 2.713226 2.161486 7.984104 0.00117082 0.00476120 0.01161106 -10.20200671 -11.11052978 18.44939345
241 1 30.702901 9.202321 28.723643 0.05509875 0.02861685 -0.01870904 -45959.42103355 -40440.01659838 40331.95100479
242 1 29.844006 11.575024 20.579590 -0.03147539 -0.02950412 -0.03838813 263.10855477 235.05678257 -48.21115668
243 1 8.389646 24.441982 21.880484 -0.01176333 0.00828793 0.01095086 0.00007097 0.00002496 -0.00002695
244 1 23.719220 20.627040 27.097229 0.01063484 0.00566604 -0.02997881 0.00021459 -0.00002850 -0.00000218
245 1 6.171385 31.751739 0.863987 0.04356078 -0.01194686 0.07048698 -0.00011806 -0.00019396 0.00007972
246 1 10.206523 18.390657 33.348612 -0.04318692 0.02565457 -0.01036067 -0.00005053 0.00004458 0.00026550
247 1 15.412094 20.261417 0.031570 0.03692819 -0.01701570 0.01712700 0.00015995 -0.00016470 -0.00003957
248 1 31.316087 28.634477 4.426290 -0.03707037 0.00342141 0.00934422 1.16579953 17.13384819 -5.67506577
249 1 22.436535 33.844151 29.045256 -0.01173201 -0.02016167 -0.01318018 -0.00001953 -0.00007101 -0.00011642
250 1 28.911459 19.119787 0.675515 -0.01923321 0.02146054 0.05607161 -14.14205213 13.43808324 21.52601456
251 1 21.324040 3.619329 5.692715 -0.00322708 0.01262209 -0.01175173 0.00013535 -0.00029914 -0.00036803
252 1 9.786031 2.627359 5.787031 0.06031995 0.01759973 -0.02027442 -0.39548189 -0.33088480 0.20324674
253 1 12.647059 36.087899 25.379639 0.00399228 -0.00313773 0.05892593 -0.00019440 -0.00022576 0.00002923
254 1 3.719103 26.788095 11.668212 0.05989742 0.01618121 0.02897756 -0.00813841 -0.00038156 -0.00126157
255 1 22.109172 35.363537 30.035813 -0.01831719 0.03423347 -0.01676736 0.00009490 -0.00012003 -0.00002118
256 1 22.005770 4.216837 0.417892 -0.07168966 0.00410594 -0.01578654 0.00016989 0.00001041 -0.00013474
257 1 23.671931 29.613153 7.372587 -0.02437928 0.02168808 0.03547644 -0.00049987 -0.00165520 -0.00092520
258 1 33.001682 23.496659 14.896322 -0.00895173 -0.01854217 0.00470619 0.00002324 -0.00007371 0.00004654
259 1 32.540331 13.569532 5.184999 -0.02995819 -0.02532695 0.05195514 0.00000256 -0.00004704 -0.00005570
260 1 13.372038 11.052732 3.836500 -0.00216190 -0.01121154 -0.00310185 -0.00024304 0.00042064 0.00004968
261 1 19.384811 9.161508 10.139170 -0.01056627 -0.01491845 0.04125408 0.00020236 0.00027629 -0.00007004
262 1 3.773936 33.846906 0.894000 0.00909712 0.04290643 -0.02378846 108.24531177 2118.14128650 -1004.83347567
263 1 23.969813 3.507786 2.021115 0.06396718 -0.04289130 -0.02366255 12.62240604 18.53449263 2.40855333
264 1 35.576253 22.382091 27.960480 -0.01446760 -0.06689476 0.01298552 0.00009998 0.00021542 0.00002125
265 1 6.931369 27.328804 28.097803 0.03048539 0.00750945 -0.00694256 -0.00006591 0.00013398 0.00001725
266 1 10.158775 18.815404 21.915806 0.01197130 -0.01383522 0.01904201 0.00009446 -0.00000083 -0.00014498
267 1 9.504810 29.856547 29.321282 -0.01458338 0.03373982 -0.01719561 -0.00004739 -0.00008444 -0.00011426
268 1 33.451479 4.139945 6.254239 -0.06008866 0.01877747 -0.04804483 -0.00008234 -0.00003580 0.00002275
269 1 25.451634 32.972447 25.874913 -0.00749697 0.03078373 0.00246300 -0.00020758 0.00007511 0.00012353
270 1 15.652825 14.669103 12.012425 -0.02632533 -0.00897167 -0.01078157 -0.00018772 -0.00011113 -0.00000551
271 1 23.846236 19.403507 36.039946 -0.02789554 -0.01683280 0.00466873 0.00110652 -0.00201677 0.00023697
272 1 36.150157 7.605727 19.771253 -0.00824760 0.03282120 -0.02027548 0.00011725 0.00001731 0.00026636
273 1 20.519811 2.783448 23.277727 0.01470180 0.03008803 0.00936002 0.00153783 -0.00006434 -0.00141152
274 1 24.705781 29.964414 36.035493 0.02058490 0.00252444 0.01202189 0.00011808 0.00009621 -0.00018148
275 1 0.153327 7.205023 26.126627 -0.01048345 0.02982123 0.01513842 -0.00018061 0.00071895 0.00000263
276 1 17.305768 2.300369 4.405335 -0.03299229 -0.01259668 0.01935556 -0.00006995 -0.00011735 -0.00015948
277 1 8.830749 2.166179 7.176363 0.00851973 0.01172152 -0.01289640 -840.71031120 -1114.93626759 -666.75096624
278 1 26.493634 34.141418 10.664328 -0.01728416 0.02598184 -0.01879878 -0.01121618 0.04019770 0.07603335
279 1 18.757164 13.441220 9.892225 -0.00667306 0.04224931 0.00451908 0.00004107 -0.00010501 0.00008024
280 1 0.820010 30.720708 11.043056 0.02165783 0.00725912 -0.03245520 0.00051063 0.00094366 0.00035207
281 1 10.789880 30.673675 7.821589 0.02612052 -0.00691158 0.02354964 -87626.12294351 29007.34583073 -136511.01714043
282 1 30.655295 29.839535 19.105524 0.00835453 -0.00560320 0.01527669 0.00045658 -0.00121846 -0.00215130
283 1 26.296212 29.407660 3.897415 -0.01032034 0.03056743 0.03106572 -0.00006181 0.00002638 -0.00036562