LAMMPS data file for silica system 8

2539 atoms
2 atom types

0.0 34.311368 xlo xhi
0.0 34.311368 ylo yhi
0.0 34.311368 zlo zhi

Masses

1 28.0855  # Si
2 15.9994  # O

Atoms  # atomic

1 1 30.672163 22.507929 28.098739
2 1 4.207477 18.196013 28.669514
3 1 19.362992 9.434732 6.708092
4 1 19.006625 6.671673 33.625951
5 1 31.677483 27.981918 0.888549
6 1 15.031572 4.048317 11.202334
7 1 4.902224 12.064963 2.133141
8 1 19.896644 16.984109 3.063334
9 1 20.122609 6.664217 9.383198
10 1 18.447973 32.561461 29.713867
11 1 19.035043 10.245100 0.457785
12 1 33.714296 18.732083 18.724043
13 1 33.631013 18.556137 1.098129
14 1 12.679435 21.125673 6.061811
15 1 32.286271 17.469579 27.430678
16 1 23.968244 3.031171 12.180773
17 1 25.913586 29.501447 23.965641
18 1 27.691513 14.885605 10.009978
19 1 17.131508 16.268589 1.901706
20 1 15.521171 3.985933 1.808669
21 1 25.731719 10.324208 19.036220
22 1 18.527174 32.646880 23.437204
23 1 8.615911 33.731651 2.206053
24 1 7.490263 5.662926 6.161344
25 1 26.428014 23.672667 0.073913
26 1 11.591729 23.328522 32.172104
27 1 15.669095 24.841575 18.342594
28 1 27.009377 18.849626 9.226168
29 1 10.818735 29.943807 28.590295
30 1 19.316810 20.737936 9.032391
31 1 5.955813 0.136632 25.875876
32 1 7.339720 29.753925 33.586293
33 1 23.303013 32.307694 31.472352
34 1 6.854623 29.892028 24.609859
35 1 5.088475 25.604109 16.627632
36 1 1.846202 26.299531 30.160674
37 1 27.942680 0.342188 20.269041
38 1 23.357367 30.144435 2.857011
39 1 19.532720 21.478659 13.633808
40 1 32.051400 10.277261 31.328559
41 1 5.409523 32.756611 28.013616
42 1 14.513169 15.083479 22.301808
43 1 22.802055 2.719674 15.678456
44 1 4.485688 9.816019 32.566519
45 1 24.012365 10.882294 2.457132
46 1 21.454688 16.534690 2.849581
47 1 30.204520 19.540820 12.678303
48 1 0.215022 1.139389 33.974016
49 1 4.745862 24.531533 24.507064
50 1 21.660286 7.438445 11.239787
51 1 31.638974 8.268653 7.186708
52 1 18.422208 32.500101 34.021826
53 1 12.424453 29.261049 32.489710
54 1 15.529655 18.199898 29.886661
55 1 5.904765 31.792862 2.415281
56 1 21.617556 19.779967 19.414331
57 1 0.788307 8.748687 17.644851
58 1 31.754432 31.590980 2.707781
59 1 4.654796 19.646761 27.688780
60 1 27.451408 12.308992 0.616469
61 1 10.929192 0.323730 8.525066
62 1 24.484245 0.178291 8.875415
63 1 22.052509 8.367213 9.089867
64 1 25.958430 5.925043 24.727498
65 1 31.858767 16.742138 3.309156
66 1 2.637459 3.731240 1.356765
67 1 32.793844 9.871667 8.151506
68 1 5.202399 6.481360 25.083086
69 1 8.551715 5.383054 30.458444
70 1 11.216108 5.094093 33.433315
71 1 21.292923 17.292322 23.000645
72 1 12.395035 27.293661 16.663802
73 1 5.506902 27.870113 11.557398
74 1 21.334165 11.864665 10.383605
75 1 0.167637 31.167038 1.782166
76 1 24.626836 20.966243 0.807045
77 1 24.414784 6.879150 16.288741
78 1 20.996441 1.046170 28.603849
79 1 14.392727 4.551951 15.367407
80 1 19.200447 5.616264 21.141890
81 1 20.519606 11.371609 14.117994
82 1 18.494476 12.289432 15.079697
83 1 10.371014 24.089163 27.719754
84 1 18.706836 0.956574 4.305378
85 1 18.904782 24.506629 29.197688
86 1 11.992038 5.613374 6.579870
87 1 26.704964 9.788179 1.978307
88 1 29.678029 18.191090 33.804355
89 1 19.171129 8.019742 27.042423
90 1 24.231461 18.332906 27.962586
91 1 27.388490 7.864253 22.511564
92 1 9.542260 30.571269 3.010387
93 1 26.254183 6.495060 10.264726
94 1 8.884002 21.399532 2.947274
95 1 8.140470 22.635850 6.310456
96 1 5.144907 33.360235 33.132981
97 1 29.596093 1.214855 30.524878
98 1 24.242801 14.589439 4.732783
99 1 2.194304 20.548232 0.457539
100 1 3.470021 19.288524 32.700603
101 1 32.945130 10.195945 7.555590
102 1 9.306021 17.344937 26.592915
103 1 5.641150 22.927003 19.304013
104 1 17.451629 27.987517 18.983003
105 1 11.954538 33.243647 17.114304
106 1 33.257626 20.081865 25.702779
107 1 22.514154 20.576855 18.580032
108 1 24.904447 27.400337 30.473249
109 1 6.976858 14.402096 4.215160
110 1 25.231051 8.259594 25.220802
111 1 3.909767 21.713100 13.547370
112 1 7.783790 15.159280 5.906709
113 1 24.502727 13.057736 26.571322
114 1 30.275497 25.989699 14.073091
115 1 4.196260 26.050649 4.673262
116 1 24.533185 32.080498 21.851502
117 1 23.052428 15.868423 8.300583
118 1 14.501604 25.471786 26.672518
119 1 17.278419 5.507329 22.549740
120 1 21.519057 2.157691 25.455665
121 1 3.456062 28.362082 21.796958
122 1 32.566508 29.789751 21.082193
123 1 6.508632 24.289575 2.923440
124 1 1.173826 16.657371 18.992885
125 1 33.384556 4.997056 27.548869
126 1 14.630669 5.698069 19.578837
127 1 15.754974 19.565047 4.545760
128 1 2.357788 0.743389 15.313889
129 1 9.125819 5.133819 8.904334
130 1 31.538051 32.435215 22.454101
131 1 25.110391 26.609553 28.042733
132 1 19.625218 26.431478 24.537696
133 1 11.865755 32.013969 12.716742
134 1 29.503226 20.401235 6.597255
135 1 27.085736 7.645035 3.023251
136 1 17.999709 17.891329 30.367656
137 1 6.812929 26.482734 27.518907
138 1 7.335447 16.773219 10.152944
139 1 33.524438 8.803372 6.845204
140 1 14.614878 14.930222 1.469334
141 1 14.922805 19.342038 22.272577
142 1 3.250061 30.603648 9.994878
143 1 1.898760 29.892948 28.187367
144 1 28.863745 0.185908 9.096268
145 1 13.599355 7.498442 26.827229
146 1 5.842000 22.531899 7.606596
147 1 13.776595 26.536053 5.519801
148 1 31.003489 23.076984 32.683524
149 1 22.854219 15.630408 19.675572
150 1 5.249252 19.325782 27.920174
151 1 27.916342 24.620898 10.362717
152 1 23.049489 26.081024 19.116578
153 1 12.516659 3.138121 8.798125
154 1 16.521205 32.165263 11.589059
155 1 17.038188 33.532722 18.726796
156 1 17.599319 10.766703 8.744858
157 1 1.139843 13.376577 22.600015
158 1 22.463583 24.450802 13.520407
159 1 27.256381 29.512239 14.291800
160 1 29.566254 20.497019 13.499756
161 1 28.389131 7.595365 33.020808
162 1 17.248981 18.311639 21.583504
163 1 2.452516 4.078023 16.914042
164 1 2.128084 12.178995 0.984595
165 1 19.937322 12.633183 19.313461
166 1 10.699965 25.521894 17.547263
167 1 10.335964 21.746765 21.990153
168 1 16.565147 20.015320 9.905932
169 1 26.745859 9.785876 2.759138
170 1 2.739008 10.259071 28.802749
171 1 27.212649 26.004004 25.273780
172 1 32.111844 26.971074 31.601526
173 1 13.671733 32.732769 7.741098
174 1 15.662574 21.839262 27.010647
175 1 23.793371 10.306843 26.084389
176 1 7.483800 26.372960 24.164369
177 1 20.923311 9.720348 8.531497
178 1 24.288549 25.002837 4.461773
179 1 22.235043 30.577265 22.620468
180 1 4.339953 23.487917 8.850316
181 1 26.001749 5.723100 23.668762
182 1 8.184933 8.640983 15.398459
183 1 16.219766 32.764180 9.911850
184 1 23.867554 25.509468 0.783156
185 1 14.753752 31.244975 7.807526
186 1 19.702897 23.758773 1.644044
187 1 27.793661 13.643189 24.321507
188 1 29.512503 27.487800 15.754054
189 1 8.471528 18.194839 14.246623
190 1 32.713772 23.706753 4.143536
191 1 3.700384 1.640390 14.133064
192 1 30.481260 19.100557 0.168705
193 1 27.300772 12.866995 20.065620
194 1 32.769404 16.752302 15.487849
195 1 32.063485 9.098262 18.600818
196 1 9.964118 10.167767 8.167067
197 1 14.831816 9.552380 0.878592
198 1 33.033777 32.266951 27.426391
199 1 29.730646 23.490829 11.159290
200 1 6.388244 29.545095 24.128971
201 1 21.827306 20.667921 20.588666
202 1 15.855738 10.052285 15.356324
203 1 13.714323 23.029368 18.339041
204 1 26.870231 33.975070 4.504306
205 1 29.631261 25.757914 20.933915
206 1 22.939845 7.056280 25.411113
207 1 31.139461 26.092686 2.241245
208 1 12.410287 8.888903 11.957708
209 1 13.198934 17.417672 10.645024
210 1 7.427510 16.061803 23.908361
211 1 20.428308 11.320701 31.421417
212 1 12.950772 3.746178 2.650599
213 1 25.782699 18.573153 18.066348
214 1 26.436823 9.561043 2.235474
215 1 24.243258 4.057004 15.140003
216 1 7.025269 24.674271 16.632206
217 1 32.337291 16.662631 15.969438
218 1 14.103961 5.520673 23.834867
219 1 10.176448 4.424583 7.855907
220 1 5.461014 24.637598 33.571828
221 1 23.239120 2.134235 1.653445
222 1 3.482944 7.004678 3.308795
223 1 29.205256 32.652241 15.197452
224 1 3.654976 18.070969 24.712211
225 1 14.041634 15.814859 14.772206
226 1 19.335079 18.898867 27.247362
227 1 23.130655 27.287991 27.393789
228 1 8.871186 13.233725 25.029246
229 1 4.218024 12.026005 19.760907
230 1 13.679358 27.720715 33.225671
231 1 19.835846 26.554501 5.646159
232 1 28.302289 0.388356 33.396505
233 1 0.567070 27.035434 4.338014
234 1 16.554928 12.537249 33.714137
235 1 14.659435 3.642752 20.438907
236 1 25.815732 7.663465 0.869954
237 1 17.851194 16.204093 0.215690
238 1 5.167067 20.088645 14.006972
239 1 5.204360 19.675259 33.573062
240 1 7.170824 27.625192 19.104325
241 1 25.615641 1.182981 29.924983
242 1 32.848422 30.288567 14.562201
243 1 20.101993 11.874085 8.153260
244 1 8.878881 3.631598 5.133181
245 1 29.017349 2.272143 14.325275
246 1 3.167941 21.652679 12.500846
247 1 29.756778 4.506027 3.092963
248 1 11.282665 3.330342 13.347832
249 1 24.940522 13.128705 12.040452
250 1 18.147082 28.421576 33.379723
251 1 1.038252 11.889327 5.742526
252 1 10.314370 25.980274 33.543140
253 1 13.719776 1.594324 25.786409
254 1 26.324448 31.324067 0.495563
255 1 30.583228 16.753736 18.863855
256 1 2.181210 9.641715 16.526409
257 1 33.492384 19.405621 33.864043
258 1 30.611874 32.025856 19.973870
259 1 16.398051 31.517199 17.370277
260 1 0.902153 31.713291 4.135489
261 1 32.777086 3.684129 10.224522
262 1 13.690200 0.116904 13.934421
263 1 26.957205 24.339405 20.866467
264 1 0.705393 27.370263 8.123317
265 1 13.856522 5.770360 24.939185
266 1 16.029015 23.806077 25.569962
267 1 33.718318 7.620172 0.643296
268 1 19.327305 10.032491 24.361109
269 1 30.594959 23.569564 33.270137
270 1 22.944481 10.211366 10.125101
271 1 4.868185 19.251304 27.934948
272 1 32.349335 10.925278 29.366925
273 1 28.990662 9.521297 6.357475
274 1 13.670024 5.598212 6.340249
275 1 5.237410 2.875349 34.288123
276 1 18.669268 6.317537 4.249326
277 1 7.712293 13.484301 3.361629
278 1 21.157908 33.452872 16.792911
279 1 16.395074 2.890226 34.255405
280 1 1.504491 11.665575 14.123621
281 1 17.865581 9.913254 11.451346
282 1 27.105105 16.900751 26.608907
283 1 24.610795 17.401339 25.130865
284 1 29.760820 4.995956 12.579687
285 1 0.226054 27.303950 8.257030
286 1 21.059288 14.153338 23.773744
287 1 12.711382 8.608457 2.264785
288 1 17.818306 17.116296 13.181721
289 1 7.805527 9.130050 23.037040
290 1 11.862314 1.016296 0.259657
291 1 20.361078 17.851600 18.217763
292 1 20.483823 33.528847 10.098560
293 1 27.955118 2.215699 31.846322
294 1 21.261470 10.740959 8.928032
295 1 0.385405 6.467876 8.173373
296 1 11.140702 9.413274 20.355212
297 1 1.100873 31.140765 5.837917
298 1 9.489485 29.258455 3.755828
299 1 24.585577 12.435679 16.388255
300 1 5.745357 0.465460 32.398388
301 1 27.773537 2.635120 12.657954
302 1 12.201380 14.229446 20.511775
303 1 31.465396 23.135278 0.271396
304 1 10.718084 32.798498 19.258961
305 1 5.994393 5.281749 8.852390
306 1 13.414249 33.612261 12.200298
307 1 14.390085 20.150544 23.485047
308 1 15.739075 8.273120 12.155483
309 1 10.330504 0.944231 12.976792
310 1 25.047277 19.239450 10.879722
311 1 4.036350 0.726885 1.415268
312 1 24.903676 7.761867 26.230026
313 1 34.142204 17.915600 17.602515
314 1 29.753528 12.697318 2.602007
315 1 27.202256 9.367765 22.260250
316 1 27.552521 22.253458 28.396328
317 1 32.417707 0.383449 22.931846
318 1 26.205286 13.457418 8.212275
319 1 10.022590 9.464306 14.452796
320 1 25.775487 9.954010 30.125182
321 1 1.734539 13.264421 28.246194
322 1 21.533957 0.607194 14.828855
323 1 22.113114 30.112805 12.385655
324 1 26.414301 0.420546 32.930905
325 1 18.846045 33.083262 21.145370
326 1 13.978360 28.810002 8.046853
327 1 15.161240 23.374631 17.466388
328 1 17.333088 0.876038 18.822534
329 1 15.948038 6.183726 7.135256
330 1 24.414762 9.925304 31.040045
331 1 11.416749 4.509585 5.026163
332 1 21.390882 2.112849 21.073301
333 1 15.693509 19.599264 24.846040
334 1 30.803022 4.115992 19.221865
335 1 7.201855 3.666645 3.944155
336 1 18.218041 17.605325 29.881502
337 1 32.018104 32.663827 1.141044
338 1 27.685445 7.027753 18.595126
339 1 25.484824 26.263408 8.980533
340 1 33.757184 33.947555 12.411622
341 1 17.116226 27.004186 21.591950
342 1 9.989040 25.648584 15.112304
343 1 1.393195 12.225848 1.110078
344 1 6.228918 17.145117 8.790281
345 1 8.508158 22.373728 14.834286
346 1 8.259669 10.086573 10.383867
347 1 8.075434 24.368630 34.057466
348 1 22.518173 9.777738 31.389835
349 1 14.051966 19.959785 12.000230
350 1 23.301876 30.335165 1.933234
351 1 13.396931 17.509710 25.930873
352 1 29.388221 31.061558 27.102835
353 1 28.136726 22.782787 32.494889
354 1 9.595043 29.363094 24.643586
355 1 2.710482 12.455886 15.345793
356 1 21.661737 24.482223 29.337071
357 1 10.660015 1.128169 7.287641
358 1 20.123462 6.030530 3.886935
359 1 4.494129 31.621362 0.560316
360 1 0.658009 29.670249 20.339239
361 1 10.269888 7.061539 2.446105
362 1 3.588330 7.983338 15.658479
363 1 9.435570 9.470224 12.617041
364 1 14.420778 1.615960 4.339228
365 1 5.048233 14.284202 19.244918
366 1 17.357089 6.665386 6.124861
367 1 33.295117 15.540722 21.467231
368 1 32.883415 15.762617 1.146294
369 1 29.623464 26.217062 14.412549
370 1 30.680101 8.652541 29.227594
371 1 28.852070 31.480965 17.080170
372 1 16.674883 24.832237 13.474552
373 1 23.891876 16.860084 2.125366
374 1 9.400299 17.488590 5.975631
375 1 25.675249 20.312729 25.748944
376 1 6.083020 1.327135 21.461540
377 1 21.024345 33.367936 6.402475
378 1 24.936791 20.662729 32.260277
379 1 16.267732 29.843998 20.136722
380 1 9.341469 33.323300 9.228741
381 1 24.167738 32.818795 26.838407
382 1 26.523880 1.759933 16.705997
383 1 33.949631 23.625995 28.945385
384 1 3.315594 0.394635 1.366191
385 1 27.437680 18.543919 17.310726
386 1 15.354098 3.525263 24.219851
387 1 31.219878 29.131724 32.555490
388 1 8.409047 6.402461 23.085617
389 1 18.682603 22.664331 2.524098
390 1 5.839500 23.635742 28.988748
391 1 5.984512 34.183869 11.723624
392 1 0.615365 8.939521 24.349038
393 1 11.145060 21.806925 27.350954
394 1 3.476199 29.369797 7.561963
395 1 8.601527 11.340145 12.015818
396 1 7.251524 29.207554 2.078356
397 1 3.810212 0.756594 17.873266
398 1 30.885549 4.986772 25.366555
399 1 9.115368 5.676945 4.995824
400 1 8.543148 0.209781 26.186499
401 1 16.394517 4.243382 17.742521
402 1 22.729533 28.347594 20.272092
403 1 27.444741 19.330856 1.259030
404 1 0.208103 0.154746 18.623653
405 1 4.045825 14.378013 17.420565
406 1 7.890405 31.772118 0.287982
407 1 27.247774 0.486041 24.751744
408 1 1.748550 19.316793 27.637253
409 1 17.369781 23.422320 11.263189
410 1 9.618254 10.976411 9.368882
411 1 25.702593 16.223054 7.854190
412 1 22.137506 18.396690 17.738893
413 1 20.579973 24.643232 23.835819
414 1 11.207360 29.895207 26.171902
415 1 20.563764 6.776575 0.737321
416 1 26.503692 9.620913 16.872118
417 1 11.583895 6.418761 14.792424
418 1 30.167407 6.422363 4.901989
419 1 32.521503 20.295382 30.600879
420 1 9.239882 33.764817 6.408907
421 1 2.800001 21.161453 28.613401
422 1 2.556550 20.805102 24.427085
423 1 12.705962 7.579485 26.588991
424 1 7.640769 18.780791 6.599114
425 1 10.121668 13.627087 32.315846
426 1 14.825545 4.862245 4.655486
427 1 16.108070 28.305202 6.608954
428 1 24.207795 22.804470 16.321749
429 1 31.510341 13.798688 5.498077
430 1 21.109577 10.321102 25.815927
431 1 17.999540 27.900297 34.095531
432 1 17.479065 1.045567 20.207055
433 1 30.215028 19.357896 6.787578
434 1 21.423170 6.069502 16.117703
435 1 7.646473 28.012815 1.723681
436 1 29.469672 4.142680 7.732960
437 1 12.859566 9.265517 9.551648
438 1 15.802861 12.346371 5.558428
439 1 27.039138 5.081358 26.639458
440 1 3.179625 18.804871 14.484415
441 1 20.601720 24.424357 11.620785
442 1 32.434306 27.263244 4.529126
443 1 4.891858 7.491509 1.224947
444 1 7.799116 17.772270 13.014144
445 1 20.058643 1.464604 22.704003
446 1 30.581245 8.877468 31.450006
447 1 1.015762 33.523617 1.754683
448 1 17.789724 9.181018 10.786785
449 1 6.832727 14.539063 26.117882
450 1 1.767881 27.651353 27.837954
451 1 28.581732 4.933838 14.008608
452 1 14.464069 14.447887 16.819428
453 1 16.914775 32.859782 23.704691
454 1 33.450033 30.389867 12.480295
455 1 28.418163 24.022326 8.012324
456 1 7.647868 27.070396 12.256768
457 1 2.163584 0.420447 6.332338
458 1 25.031801 14.855988 10.767413
459 1 4.947504 11.927626 13.120747
460 1 14.097503 3.722620 10.344836
461 1 12.939395 12.009240 8.526312
462 1 3.560265 2.135490 24.414791
463 1 1.475131 25.968370 3.330188
464 1 0.683576 19.359115 17.324186
465 1 26.511615 4.845917 33.329941
466 1 26.610096 26.813418 21.256377
467 1 11.612880 12.100766 29.955629
468 1 29.467499 30.015452 29.492416
469 1 3.239394 4.743857 27.222837
470 1 29.374258 5.722355 32.186329
471 1 15.197541 32.645165 15.526240
472 1 23.422081 4.862627 6.518160
473 1 26.910268 13.037703 17.256899
474 1 27.324975 21.041406 22.558106
475 1 3.358231 3.668963 30.057260
476 1 27.092306 28.343333 16.677562
477 1 9.998600 0.698025 16.120779
478 1 4.731341 9.487917 5.010135
479 1 20.994796 27.029321 16.636534
480 1 16.820424 22.186516 34.297637
481 1 1.950513 4.271154 10.192469
482 1 4.343625 19.052192 2.487805
483 1 24.738759 9.865283 33.325867
484 1 7.161127 15.453641 22.440833
485 1 23.519518 30.147766 11.359056
486 1 20.709358 5.600884 2.296094
487 1 18.955673 18.550901 0.459011
488 1 5.006580 33.046391 15.946991
489 1 32.779871 2.690424 21.607395
490 1 13.142419 26.898596 8.173929
491 1 14.857489 11.776816 11.418608
492 1 13.519148 16.207844 15.248661
493 1 2.045877 33.928476 10.917216
494 1 18.010644 2.748807 8.652121
495 1 33.249320 8.549586 8.179796
496 1 3.583893 7.371556 18.176797
497 1 26.029232 0.754122 5.355922
498 1 2.419657 30.208705 17.854730
499 1 2.523541 1.774933 9.525753
500 1 1.520327 13.616600 25.287793
501 1 20.885602 14.003983 31.811803
502 1 32.609712 5.119057 25.365419
503 1 23.833976 21.378364 7.663703
504 1 26.731550 30.970216 6.504312
505 1 20.006364 20.292053 6.614353
506 1 16.554533 26.347580 13.215943
507 1 10.684870 25.872478 13.932000
508 1 7.636248 6.666409 27.087041
509 1 1.573623 17.930884 26.192724
510 1 12.496543 4.042566 13.970809
511 1 29.789381 25.740792 23.513432
512 1 8.425725 0.340031 30.036193
513 1 22.891052 25.326181 32.849633
514 1 8.115397 12.873077 12.673880
515 1 26.054445 11.003523 5.347778
516 1 27.674967 3.819307 18.461884
517 1 16.589848 29.750641 21.631061
518 1 0.028236 32.844149 24.033649
519 1 25.394994 22.478516 26.551588
520 1 31.047802 34.162103 32.346074
521 1 11.487206 31.041523 27.301081
522 1 22.044302 20.230387 17.640551
523 1 19.788570 7.331262 26.314149
524 1 24.068936 22.325747 12.308533
525 1 11.249604 28.096733 5.489933
526 1 32.773347 4.502061 3.732456
527 1 11.937766 33.270578 18.950180
528 1 11.254176 30.455206 17.743452
529 1 26.698435 0.614514 26.094861
530 1 6.251466 28.027748 21.806229
531 1 32.828020 13.814829 24.594168
532 1 8.795808 5.107327 32.336210
533 1 12.668626 2.249750 29.579735
534 1 23.925318 11.712860 18.230761
535 1 0.988038 23.677123 8.195595
536 1 23.037869 5.362158 16.905261
537 1 27.831090 3.542052 19.152403
538 1 29.355357 1.050088 12.151654
539 1 3.490204 20.997874 0.379646
540 1 2.134635 8.880730 4.651359
541 1 7.174295 31.555556 23.717951
542 1 0.684274 28.431717 6.910965
543 1 26.598463 21.555796 22.199855
544 1 25.819311 4.567992 32.026918
545 1 23.127585 9.086634 31.672521
546 1 19.056449 32.306850 11.590338
547 1 28.106644 7.366457 15.330021
548 1 1.514790 14.001454 15.364129
549 1 12.545229 34.252402 6.044964
550 1 10.885470 20.449868 26.248004
551 1 11.560577 15.549099 1.502273
552 1 18.243052 11.352884 2.118022
553 1 11.645044 16.700249 11.932944
554 1 10.930762 6.959354 14.742991
555 1 6.676097 21.308674 17.438092
556 1 6.557397 1.488118 25.740397
557 1 29.167153 17.683774 7.166315
558 1 24.082189 20.975141 18.093273
559 1 23.067839 34.264960 3.595083
560 1 34.016752 15.966929 11.976860
561 1 20.197315 13.043677 27.767262
562 1 17.172256 0.652522 2.410761
563 1 31.754728 11.900247 8.389823
564 1 10.887784 34.113124 18.280330
565 1 23.772189 33.549245 4.255367
566 1 33.528107 33.583971 0.318175
567 1 30.713230 16.721213 20.612355
568 1 15.026310 20.387959 16.540918
569 1 26.438791 21.280684 33.537684
570 1 0.293333 20.794150 31.809127
571 1 8.452073 6.283237 13.429589
572 1 34.263052 27.719766 6.209289
573 1 7.468928 7.597171 8.256698
574 1 15.593792 10.704451 6.345365
575 1 27.226594 19.787377 8.297358
576 1 15.365129 21.674688 20.637676
577 1 26.986478 1.862117 31.768246
578 1 10.610199 8.627525 1.430479
579 1 19.720324 30.583027 8.852839
580 1 22.255281 7.544233 2.477574
581 1 33.152109 14.952213 27.684170
582 1 0.400147 26.120642 12.735598
583 1 4.447966 21.061404 22.297092
584 1 23.954806 1.430451 22.223554
585 1 19.579552 21.278725 19.766713
586 1 21.184243 27.094590 15.817293
587 1 0.778445 5.413426 5.165614
588 1 27.178770 8.093661 20.313147
589 1 22.123635 19.116825 30.116784
590 1 26.289050 6.808113 11.930056
591 1 15.303506 14.374367 5.295043
592 1 14.132048 33.406622 26.549738
593 1 17.743613 22.530567 4.441200
594 1 6.921800 30.002878 20.034108
595 1 1.759550 0.191478 14.158359
596 1 15.487238 7.518617 4.967953
597 1 2.184101 22.599057 4.136819
598 1 24.994308 17.936654 4.348179
599 1 25.561067 7.201340 33.293108
600 1 0.535095 21.996050 27.604831
601 1 32.986153 22.440036 3.897858
602 1 26.130080 24.156584 8.904322
603 1 19.299921 21.889205 20.582966
604 1 9.027113 27.071641 15.459402
605 1 32.716780 10.509192 3.383543
606 1 13.924340 14.988725 0.271013
607 1 18.493306 13.891174 23.288740
608 1 21.315489 25.208961 29.634212
609 1 3.086465 32.474269 17.657682
610 1 6.936481 15.074232 24.797187
611 1 28.849975 31.631817 17.265195
612 1 0.819255 22.159067 28.141648
613 1 25.157981 2.462563 15.085224
614 1 22.256359 8.399325 3.419659
615 1 14.242318 25.741216 23.541256
616 1 3.870053 24.747513 26.758102
617 1 21.841322 8.142821 1.246555
618 1 32.686371 27.425900 19.975758
619 1 1.567113 17.166638 19.580534
620 1 14.475382 2.201946 3.553357
621 1 14.946841 22.930781 4.888847
622 1 9.283329 33.241947 5.938834
623 1 9.064649 28.600415 33.394893
624 1 12.578054 27.178507 1.303103
625 1 25.039701 8.181580 19.506806
626 1 18.207093 8.652272 18.834246
627 1 7.999954 7.894622 1.153581
628 1 27.084601 31.458894 23.793288
629 1 33.918803 14.025628 23.487390
630 1 31.982432 13.820028 17.559532
631 1 24.919426 25.863506 21.149144
632 1 0.056968 22.010129 17.579743
633 1 5.891679 22.947505 18.635756
634 1 32.981218 20.689690 16.031808
635 1 28.074822 3.844507 26.204021
636 1 13.183215 10.142887 5.345958
637 1 10.959562 6.375036 28.177058
638 1 3.370446 32.833401 14.478888
639 1 27.346707 12.749664 2.338633
640 1 19.681870 27.242200 12.009645
641 1 20.874870 12.331215 14.311508
642 1 21.126418 29.033091 16.274431
643 1 14.045170 1.128463 31.096109
644 1 31.913346 29.665238 16.813651
645 1 3.575728 23.366278 16.530708
646 1 21.979186 4.789006 9.496096
647 1 8.188240 13.603805 11.638576
648 1 4.629732 3.506787 31.262278
649 1 23.827068 26.143944 21.883971
650 1 28.538911 16.491573 27.618927
651 1 20.641555 26.911705 24.867772
652 1 28.439549 33.695857 28.031410
653 1 1.189629 16.377365 15.854377
654 1 34.134549 10.349775 23.661885
655 1 14.190828 22.868449 7.288378
656 1 20.742251 15.237705 13.560618
657 1 28.281730 31.721760 11.932175
658 1 15.785194 16.844861 22.595069
659 1 17.414174 14.103837 27.057039
660 1 24.775964 12.365738 22.698439
661 1 19.774217 27.517969 0.223494
662 1 15.386562 10.112353 10.480930
663 1 19.368769 4.161523 3.397824
664 1 11.947532 7.804072 21.724864
665 1 25.846746 13.390066 1.611792
666 1 29.640760 21.316330 15.343546
667 1 15.801570 22.920674 20.607826
668 1 9.663587 22.080440 1.946510
669 1 12.360812 31.134382 8.003336
670 1 14.383378 18.793420 14.108824
671 1 30.024915 5.998507 11.128765
672 1 14.290629 32.903910 28.180381
673 1 16.488977 10.624223 34.207453
674 1 33.863526 18.884481 17.865938
675 1 20.876210 24.747956 17.383405
676 1 3.774172 18.995143 21.994087
677 1 21.079384 9.960887 29.202495
678 1 11.728134 5.584993 5.932091
679 1 32.171190 25.487778 28.096129
680 1 21.476647 3.563232 12.853945
681 1 2.849576 23.400242 28.702085
682 1 23.117778 11.519187 4.252540
683 1 11.463581 33.986039 25.701720
684 1 16.544891 25.620441 14.136963
685 1 10.856436 8.985241 26.634472
686 1 19.778787 33.601786 14.922398
687 1 14.826936 24.996044 18.879909
688 1 22.800336 26.327060 0.289216
689 1 31.748532 34.193618 2.378890
690 1 14.030665 3.258242 15.417874
691 1 34.002725 7.019982 21.081427
692 1 27.351929 34.263873 1.420309
693 1 15.414005 17.787147 15.782627
694 1 24.434261 21.904192 32.972142
695 1 20.849776 9.091884 29.998810
696 1 13.227305 30.878670 20.649108
697 1 32.149405 19.993561 19.931188
698 1 29.838602 11.516005 28.239704
699 1 28.421493 20.096875 24.850548
700 1 15.918648 25.843957 13.640193
701 1 30.610266 0.839664 24.204340
702 1 6.411609 17.436681 6.493281
703 1 23.891906 21.312116 21.240030
704 1 29.737767 23.606002 13.841577
705 1 13.011644 9.707110 25.511544
706 1 19.230776 22.914665 4.584182
707 1 2.117987 33.595051 6.809270
708 1 4.729361 26.788227 25.665311
709 1 0.397583 5.540274 0.307911
710 1 8.328657 7.918915 2.267334
711 1 9.718891 5.342507 5.224074
712 1 2.602462 32.980524 16.547892
713 1 0.638856 7.090136 8.504437
714 1 14.380925 9.300929 10.373685
715 1 25.686261 32.504037 30.549205
716 1 18.239339 4.766024 15.772772
717 1 3.840706 29.486438 10.694311
718 1 0.242627 7.516202 4.720585
719 1 21.695494 4.237321 16.588700
720 1 22.612349 9.341523 27.879457
721 1 23.261873 19.252834 0.454840
722 1 18.510244 20.234758 0.543440
723 1 22.073889 19.740293 17.744585
724 1 15.309175 7.269916 7.595868
725 1 0.705443 24.656425 0.285836
726 1 1.936575 4.122347 31.539258
727 1 10.402185 12.856256 18.181224
728 1 33.145276 22.825362 31.056191
729 1 8.163967 10.311921 15.183439
730 1 4.148403 25.925035 27.828145
731 1 11.898252 6.114982 17.290927
732 1 23.582866 29.630589 11.114504
733 1 10.644960 17.995318 6.827501
734 1 7.053824 34.089375 11.013468
735 1 3.158244 12.057725 15.972477
736 1 26.394389 20.190519 32.486273
737 1 30.265343 11.243992 6.071932
738 1 27.871449 18.089684 28.794423
739 1 20.958081 21.417451 20.015495
740 1 15.746191 27.286800 17.685234
741 1 22.850811 22.741915 23.502675
742 1 2.605628 14.394030 23.697912
743 1 9.048719 21.354687 15.057861
744 1 26.425576 2.702485 15.354286
745 1 1.860823 20.889609 11.500948
746 1 24.147348 14.526900 1.819519
747 1 29.805367 20.011637 10.813648
748 1 12.201153 7.214384 2.990440
749 1 18.628048 26.150415 32.429310
750 1 27.460322 32.182665 8.477797
751 1 30.196684 9.102562 14.175741
752 1 29.422136 27.702166 0.454178
753 1 24.861272 6.432074 16.115415
754 1 23.061552 1.985262 10.699909
755 1 23.263856 17.600991 0.450406
756 1 33.546602 8.745420 31.795111
757 1 20.153840 21.993335 10.630696
758 1 16.104832 11.662014 26.120287
759 1 4.908224 1.496475 9.780265
760 1 26.670184 26.509027 4.962448
761 1 26.263242 13.686973 27.512380
762 1 4.315614 22.344215 33.937601
763 1 26.709491 3.004246 15.377392
764 1 30.277123 32.870592 11.983711
765 1 16.361596 11.784421 9.148236
766 1 32.464910 20.226693 17.320815
767 1 30.239098 3.352042 16.301403
768 1 16.073223 12.325310 30.275755
769 1 8.457340 25.935483 32.128365
770 1 8.136749 32.094656 5.861717
771 1 23.954773 23.340454 14.598530
772 1 13.099519 33.006966 21.794444
773 1 3.961723 16.889210 31.329040
774 1 32.215771 30.468791 18.039455
775 1 19.877773 15.411128 1.495434
776 1 19.153065 22.824996 11.957222
777 1 11.132708 25.155918 10.201308
778 1 24.555333 0.019028 3.341793
779 1 6.922955 12.034939 27.474940
780 1 30.378322 28.407684 25.921736
781 1 17.034409 16.135862 30.919153
782 1 12.658580 1.936497 11.055850
783 1 7.197001 1.694684 16.856154
784 1 25.156624 24.650319 20.579979
785 1 30.030779 24.357832 2.541797
786 1 11.582030 29.613226 4.783702
787 1 23.932512 28.577096 12.893243
788 1 13.643984 21.953990 29.661837
789 1 20.880503 6.892079 9.212830
790 1 22.052271 32.868338 11.859057
791 1 16.902054 21.976872 1.929471
792 1 23.265199 17.319712 9.273783
793 1 11.952044 11.323909 16.615013
794 1 16.718262 9.572386 17.952414
795 1 21.842186 27.693445 13.255547
796 1 1.222085 10.667125 24.076828
797 1 1.984209 6.098857 13.225482
798 1 12.776974 10.498543 25.024725
799 1 1.709244 7.847159 32.525444
800 1 24.028771 11.554907 5.147471
801 1 16.398434 16.726396 32.746868
802 1 21.978270 11.904966 33.335263
803 1 6.238552 5.916771 34.066171
804 1 7.586800 14.339359 10.985677
805 1 31.146046 16.781573 0.164274
806 1 11.628725 26.642689 7.866011
807 1 19.813493 31.536949 18.471877
808 1 21.199327 33.555189 3.478183
809 1 8.298578 9.364614 8.929805
810 1 30.072622 9.150774 19.478084
811 1 19.433435 2.873037 18.508188
812 1 33.089201 24.320173 13.316796
813 1 2.311999 3.097421 26.045052
814 1 2.470633 29.490152 0.305690
815 1 0.404939 1.667210 2.186778
816 1 5.680597 2.827473 10.862258
817 1 32.340965 8.292713 3.207003
818 1 1.248755 18.087086 33.685329
819 1 3.199165 14.177532 3.928993
820 1 18.383834 17.800218 6.025947
821 1 33.640840 3.619006 6.833991
822 1 11.856535 25.145333 22.647353
823 1 27.274334 8.210209 8.996568
824 1 21.971627 31.307899 24.968033
825 1 8.156382 33.628968 16.731889
826 1 9.808152 25.315620 32.275425
827 1 28.134616 28.189067 30.927204
828 1 18.273650 33.109993 3.624413
829 1 2.964189 12.486115 28.183138
830 1 6.776273 14.177314 27.489594
831 1 29.692706 8.341515 14.127495
832 1 27.317458 6.856735 1.286766
833 1 13.909388 4.326709 15.843838
834 1 6.675067 9.050350 7.023910
835 1 10.080213 17.530569 26.613482
836 1 20.412193 26.263140 14.490889
837 1 2.313696 10.502267 24.363987
838 1 9.780580 17.951003 2.857333
839 1 26.657913 17.142350 21.425121
840 1 11.151030 8.514455 30.082603
841 1 18.056558 30.057629 21.998728
842 1 23.681193 33.686978 0.382642
843 1 6.419822 30.971787 31.040281
844 1 0.175547 32.035703 9.316349
845 1 13.700246 0.256856 13.988627
846 1 32.833746 21.505702 31.043943
847 2 7.697395 5.445447 27.584134
848 2 22.778308 1.054130 21.234938
849 2 32.652061 25.118402 3.737458
850 2 5.765586 0.237751 15.828762
851 2 33.310564 29.280230 8.695945
852 2 27.714889 14.494480 24.808757