ITEM: TIMESTEP
0
ITEM: NUMBER OF ATOMS
2539
ITEM: BOX BOUNDS pp pp pp
0.0 34.311368
0.0 34.311368
0.0 34.311368
ITEM: ATOMS id type x y z vx vy vz fx fy fz
1 1 30.672163 22.507929 28.098739 0.01148024 -0.01627135 -0.02094928 0.00016433 0.00006313 -0.00006612
2 1 4.207477 18.196013 28.669514 0.00626305 -0.03599662 0.00537725 151.74539277 230.78453695 -157.63416200
3 1 19.362992 9.434732 6.708092 0.01060249 -0.04635752 0.03525265 0.00003849 0.00011979 0.00005407
4 1 19.006625 6.671673 33.625951 -0.02133911 0.02770827 0.03007616 -0.00023971 -0.00016113 -0.00007005
5 1 31.677483 27.981918 0.888549 -0.03835530 0.01248646 0.04100655 -0.00004003 -0.00015283 -0.00008518
6 1 15.031572 4.048317 11.202334 0.00535775 0.02567271 -0.03536260 -66612.75287127 118233.70366650 -114739.50627659
7 1 4.902224 12.064963 2.133141 0.01928324 0.06135379 0.01378354 -0.00016408 -0.00010734 -0.00001642
8 1 19.896644 16.984109 3.063334 0.01297757 -0.02048597 0.03346809 0.00014890 0.00010004 0.00023532
9 1 20.122609 6.664217 9.383198 -0.01398575 -0.06632335 -0.02979771 0.00021868 0.00015096 -0.00019342
10 1 18.447973 32.561461 29.713867 -0.00727450 -0.03911633 0.00548311 -162.91036665 -1606.07851719 -1836.62831704
11 1 19.035043 10.245100 0.457785 -0.00743976 -0.00969059 -0.03651163 0.00003774 0.00010228 0.00002915
12 1 33.714296 18.732083 18.724043 -0.05536232 -0.02066714 0.01241667 -0.00005072 0.00011421 -0.00010032
13 1 33.631013 18.556137 1.098129 -0.02422419 -0.02219542 -0.04472228 -0.00005093 0.00014523 -0.00025650
14 1 12.679435 21.125673 6.061811 0.02044651 -0.01717817 0.02476148 0.00018604 -0.00004406 0.00010156
15 1 32.286271 17.469579 27.430678 0.04207258 -0.02665973 -0.02280119 -32808.49889461 33534.35843665 -19028.13907868
16 1 23.968244 3.031171 12.180773 0.01600521 -0.01630858 0.01120474 -0.00001266 -0.00005266 -0.00007581
17 1 25.913586 29.501447 23.965641 -0.01368849 0.06423645 0.07002203 -0.00004176 0.00019077 0.00008042
18 1 27.691513 14.885605 10.009978 -0.06395907 -0.05623100 -0.02659237 -0.00003683 -0.00003045 0.00004379
19 1 17.131508 16.268589 1.901706 0.04969099 -0.03065642 -0.01505225 0.00007127 0.00009654 -0.00014224
20 1 15.521171 3.985933 1.808669 -0.00524799 -0.00004162 -0.01335414 -0.00010068 -0.00000609 -0.00017044
21 1 25.731719 10.324208 19.036220 -0.01467155 -0.04077769 -0.02132934 0.00011165 -0.00005700 -0.00011801
22 1 18.527174 32.646880 23.437204 0.00794846 -0.01753112 -0.01718386 -45.74477291 2.14292454 9.14994824
23 1 8.615911 33.731651 2.206053 -0.01139300 -0.01907502 -0.01901573 -0.00015764 0.00022096 -0.00014575
24 1 7.490263 5.662926 6.161344 -0.02872889 -0.02455846 -0.02682720 0.00013988 0.00002343 0.00018725
25 1 26.428014 23.672667 0.073913 0.00340794 0.04374053 0.00987427 -0.00016738 -0.00017537 0.00018686
26 1 11.591729 23.328522 32.172104 -0.03481868 0.04705252 -0.05969638 -0.00002091 -0.00007340 -0.00005362
27 1 15.669095 24.841575 18.342594 -0.01658687 0.00491478 0.05195115 0.00004603 -0.00006048 0.00005426
28 1 27.009377 18.849626 9.226168 0.01813185 -0.01614187 -0.02090638 0.00000223 -0.00001460 -0.00000753
29 1 10.818735 29.943807 28.590295 0.00597420 0.00975778 0.02237034 -0.00003115 -0.00004934 -0.00008970
30 1 19.316810 20.737936 9.032391 0.06190876 -0.00806265 -0.01743190 0.00006929 -0.00008622 -0.00015690
31 1 5.955813 0.136632 25.875876 -0.01722695 -0.01437164 0.00123027 68.99219617 128.49572493 -27.27692339
32 1 7.339720 29.753925 33.586293 0.00863742 -0.00909886 0.00770489 -662.77099542 280.17135239 -1074.87053336
33 1 23.303013 32.307694 31.472352 0.09352413 0.00045989 -0.08732253 0.00041847 0.00007681 0.00010796
34 1 6.854623 29.892028 24.609859 -0.00060511 -0.01030999 0.01583249 0.00018635 -0.00057034 -0.00010859
35 1 5.088475 25.604109 16.627632 -0.03257961 0.01412427 0.01045112 -0.00009050 0.00015750 0.00005235
36 1 1.846202 26.299531 30.160674 -0.07002777 0.01577493 0.02172836 0.00002729 0.00000071 0.00013125
37 1 27.942680 0.342188 20.269041 -0.00440984 -0.00110112 0.01552175 13.96138102 4.63562500 20.09046384
38 1 23.357367 30.144435 2.857011 -0.06374823 0.02939059 0.00188056 0.00005255 -0.00001341 0.00000944
39 1 19.532720 21.478659 13.633808 -0.02287166 0.04573925 0.02029026 0.00010251 -0.00001252 0.00000442
40 1 32.051400 10.277261 31.328559 0.02539513 0.03160901 -0.01468105 -0.00010317 0.00001342 0.00001666
41 1 5.409523 32.756611 28.013616 -0.01270027 0.01067430 0.04897259 0.00579880 0.01788914 -0.02266951
42 1 14.513169 15.083479 22.301808 0.00744560 -0.02586220 -0.01343430 -0.00020974 0.00018323 -0.00014594
43 1 22.802055 2.719674 15.678456 0.02449601 0.01569811 -0.02255713 0.00004642 0.00013762 -0.00012417
44 1 4.485688 9.816019 32.566519 -0.01508148 -0.00058436 0.01190663 193.71800727 -198.36511785 -171.23961671
45 1 24.012365 10.882294 2.457132 0.03351228 -0.01106339 0.02099086 0.00010392 0.00007212 -0.00012248
46 1 21.454688 16.534690 2.849581 0.00421823 0.01250256 0.04933161 920.81782664 1097.69462610 1120.97667864
47 1 30.204520 19.540820 12.678303 0.02295946 -0.05187172 0.00567268 -0.00001691 -0.00004228 -0.00002843
48 1 0.215022 1.139389 33.974016 -0.00534770 -0.00148880 -0.05646178 -0.00004981 -0.00018331 0.00011194
49 1 4.745862 24.531533 24.507064 0.00710841 0.07824780 0.02242621 -0.00001305 0.00003044 0.00014687
50 1 21.660286 7.438445 11.239787 0.00794776 0.04328305 -0.03013703 -0.00003661 0.00018065 0.00004336
51 1 31.638974 8.268653 7.186708 -0.04537364 0.01763965 -0.02496194 -0.00002538 -0.00004286 0.00000805
52 1 18.422208 32.500101 34.021826 0.00990501 -0.03389626 -0.01849345 -0.00011435 0.00008856 0.00107782
53 1 12.424453 29.261049 32.489710 -0.02548434 -0.03304856 0.05866937 0.00021325 -0.00002861 -0.00015577
54 1 15.529655 18.199898 29.886661 0.03554349 -0.01383939 -0.01308108 -0.00010719 -0.00011543 0.00004604
55 1 5.904765 31.792862 2.415281 -0.04326354 -0.11072225 -0.02003453 -0.00052140 0.00064699 0.00148945
56 1 21.617556 19.779967 19.414331 -0.01608246 -0.03597252 -0.02236510 -0.00008026 -0.00010780 -0.00008742
57 1 0.788307 8.748687 17.644851 0.00472961 0.04581797 -0.01094152 -0.00002678 -0.00020148 -0.00009275
58 1 31.754432 31.590980 2.707781 0.00845285 0.03376980 0.00712765 0.00013294 0.00001868 0.00001242
59 1 4.654796 19.646761 27.688780 -0.03008587 0.01565849 -0.03277602 -3.63250689 -11.78090625 7.96399357
60 1 27.451408 12.308992 0.616469 -0.02803437 0.01962863 0.00339332 0.00003438 -0.00010771 -0.00000064
61 1 10.929192 0.323730 8.525066 0.00361425 -0.01976390 -0.09763156 -0.00015158 -0.00031443 -0.00007220
62 1 24.484245 0.178291 8.875415 -0.00615199 0.05917084 0.01464030 -0.00014617 0.00000470 0.00004800
63 1 22.052509 8.367213 9.089867 -0.01180048 0.02901502 0.00505054 -0.00020096 0.00007757 0.00007069
64 1 25.958430 5.925043 24.727498 -0.01524869 0.00853286 0.01228795 -0.00000467 -0.00007491 0.00015407
65 1 31.858767 16.742138 3.309156 0.00137507 -0.00780222 0.04249192 -0.00014427 0.00000510 0.00002826
66 1 2.637459 3.731240 1.356765 -0.00857057 -0.02609441 0.03302342 0.00011612 0.00008059 0.00005292
67 1 32.793844 9.871667 8.151506 0.06267340 0.01611905 0.03298523 0.00021053 0.00013078 0.00013681
68 1 5.202399 6.481360 25.083086 -0.01885295 -0.05155469 0.02849263 -0.00011319 0.00005132 0.00004002
69 1 8.551715 5.383054 30.458444 0.02068891 0.00107143 0.03903814 0.00011230 0.00003793 0.00003019
70 1 11.216108 5.094093 33.433315 0.01126380 -0.00285034 -0.01244582 -4484.36637162 -1799.27010149 2803.17600942
71 1 21.292923 17.292322 23.000645 0.05074925 -0.02051894 0.03762953 -0.00005782 0.00009870 -0.00014352
72 1 12.395035 27.293661 16.663802 0.01403896 0.00143844 -0.01297642 -0.00009957 0.00012619 0.00013367
73 1 5.506902 27.870113 11.557398 0.00404710 0.02292347 0.05381509 -0.00020030 0.00013128 0.00000948
74 1 21.334165 11.864665 10.383605 -0.01137670 -0.03563479 0.00671310 0.00007400 0.00008843 -0.00015415
75 1 0.167637 31.167038 1.782166 0.02152017 -0.02016077 0.00486996 -0.00009622 0.00006436 0.00005178
76 1 24.626836 20.966243 0.807045 0.00546970 0.07023712 -0.06047796 0.00003123 0.00019079 -0.00001934
77 1 24.414784 6.879150 16.288741 0.02297580 0.01977512 -0.05317184 -0.00001690 0.00004856 -0.00006709
78 1 20.996441 1.046170 28.603849 -0.02218896 0.00360152 0.04668730 0.00125825 0.00144533 -0.00045651
79 1 14.392727 4.551951 15.367407 0.00068577 0.02435865 -0.02021006 -0.00014048 0.00011325 0.00106760
80 1 19.200447 5.616264 21.141890 -0.01063797 0.00756937 0.01877897 0.00024683 -0.00002007 0.00003094
81 1 20.519606 11.371609 14.117994 -0.01992007 0.01584494 -0.00575417 -0.00012322 -0.00004058 0.00011501
82 1 18.494476 12.289432 15.079697 -0.00748858 -0.01590609 -0.01726928 0.00003295 0.00010110 -0.00010497
83 1 10.371014 24.089163 27.719754 -0.00980894 0.00231824 0.05830007 125625.64684005 158334.50814140 92048.27041201
84 1 18.706836 0.956574 4.305378 0.01162304 -0.00860749 -0.02886860 -0.00003874 0.00001697 0.00003117
85 1 18.904782 24.506629 29.197688 -0.00833592 -0.01216787 -0.00867550 0.00008534 0.00007259 0.00005687
86 1 11.992038 5.613374 6.579870 0.07731504 0.01501721 0.00071215 -0.00005958 0.00000531 -0.00013899
87 1 26.704964 9.788179 1.978307 -0.08632482 0.00733765 0.00463208 -0.00006600 -0.00016397 -0.00009887
88 1 29.678029 18.191090 33.804355 -0.07015189 -0.00275676 -0.05492857 -0.00006015 0.00000309 -0.00002761
89 1 19.171129 8.019742 27.042423 0.05288021 -0.07040914 0.05487411 0.00010053 -0.00000361 0.00021567
90 1 24.231461 18.332906 27.962586 0.03307195 -0.01416824 0.00109726 -0.00002301 -0.00014298 0.00009765
91 1 27.388490 7.864253 22.511564 0.00424252 0.01052541 0.00628702 -3041.88966403 89.11509967 -633.81266025
92 1 9.542260 30.571269 3.010387 0.00632541 0.00437967 0.01949075 0.00034654 0.00027757 0.00086251
93 1 26.254183 6.495060 10.264726 -0.04320579 0.01184900 0.02897586 0.00009061 -0.00009239 0.00017663
94 1 8.884002 21.399532 2.947274 -0.01377913 -0.01525000 -0.01822890 -0.00006254 -0.00010605 -0.00015768
95 1 8.140470 22.635850 6.310456 0.03420180 0.00483729 0.00126686 -0.00006454 -0.00001841 0.00006799
96 1 5.144907 33.360235 33.132981 0.05898978 -0.00900542 0.03094126 -0.00058595 0.00101681 -0.00008795
97 1 29.596093 1.214855 30.524878 0.07917588 -0.00810196 0.00535192 -0.00009255 0.00010356 -0.00002320
98 1 24.242801 14.589439 4.732783 -0.03896713 -0.00308003 -0.03319392 0.00150159 -0.00104829 0.00090851
99 1 2.194304 20.548232 0.457539 -0.00731409 -0.04703841 0.01657058 -0.00001568 0.00003424 -0.00005476
100 1 3.470021 19.288524 32.700603 0.05424133 0.01653550 0.01809138 3.35318328 0.81351518 1.52994564
101 1 32.945130 10.195945 7.555590 -0.00657614 -0.02838627 0.02207200 0.00002838 -0.00002696 -0.00002016
102 1 9.306021 17.344937 26.592915 -0.00853166 -0.01715354 0.00638243 0.00029649 -0.00012884 0.00004353
103 1 5.641150 22.927003 19.304013 0.01827533 -0.01980574 -0.02227674 -0.00002638 -0.00011674 -0.00009223
104 1 17.451629 27.987517 18.983003 -0.00169124 0.00950498 0.03194978 -6308.83656445 3325.28242222 230.79826174
105 1 11.954538 33.243647 17.114304 0.01054818 0.02266131 0.00956858 0.00013000 0.00011251 -0.00018947
106 1 33.257626 20.081865 25.702779 -0.01175004 -0.03207654 -0.01026479 0.00044285 0.00156989 -0.00098859
107 1 22.514154 20.576855 18.580032 -0.01690633 0.00864430 0.01582713 0.00011102 0.00008548 -0.00008009
108 1 24.904447 27.400337 30.473249 0.00670222 0.03971707 -0.01362252 0.00001335 0.00009988 -0.00014421
109 1 6.976858 14.402096 4.215160 0.02847618 0.05466439 0.01586285 0.00016463 0.00007635 -0.00006549
110 1 25.231051 8.259594 25.220802 0.02732324 -0.01559237 -0.02807023 -0.00160772 0.00018133 0.00186116
111 1 3.909767 21.713100 13.547370 0.00125918 0.01126449 0.03875392 0.00001883 -0.00006218 -0.00005541
112 1 7.783790 15.159280 5.906709 0.00656611 -0.01187760 0.03582018 854.91505706 1243.92714856 823.58238648
113 1 24.502727 13.057736 26.571322 0.00745345 -0.06353761 0.03177181 -0.00008174 0.00019875 -0.00022558
114 1 30.275497 25.989699 14.073091 -0.00247461 0.05018850 -0.03161575 -0.00001295 0.00003732 0.00008382
115 1 4.196260 26.050649 4.673262 0.01960825 -0.01496189 -0.07009888 13622.45824931 17756.33490172 -76.75005577
116 1 24.533185 32.080498 21.851502 0.00514291 0.04953091 0.04193520 -0.00043881 -0.00041830 0.00031993
117 1 23.052428 15.868423 8.300583 0.00534134 0.00339306 0.00660721 0.00008180 -0.00036981 0.00023593
118 1 14.501604 25.471786 26.672518 -0.07565824 0.05373634 -0.00796572 0.58578384 -0.25443619 0.07768323
119 1 17.278419 5.507329 22.549740 -0.02933490 0.00325151 -0.01793226 0.00001729 0.00012986 -0.00006270
120 1 21.519057 2.157691 25.455665 0.02843150 -0.03668589 -0.01414897 0.00024125 0.00019081 0.00021800
121 1 3.456062 28.362082 21.796958 -0.03360641 0.06318069 -0.03044571 0.00008397 -0.00001756 0.00014912
122 1 32.566508 29.789751 21.082193 -0.00275181 -0.02101284 0.03794187 0.00014750 0.00004352 -0.00014311
123 1 6.508632 24.289575 2.923440 -0.01995578 -0.00010993 -0.00388752 0.00167445 -0.00136778 -0.00123885
124 1 1.173826 16.657371 18.992885 -0.02520326 -0.00616402 0.03025513 -0.00010350 -0.00006431 0.00000897
125 1 33.384556 4.997056 27.548869 0.04266841 -0.03145774 0.04158529 0.00006157 0.00002228 -0.00009716
126 1 14.630669 5.698069 19.578837 -0.09821020 -0.01334822 -0.04931274 -18.78976106 5.29228497 -6.20085061
127 1 15.754974 19.565047 4.545760 0.02382558 0.05722941 -0.01735748 0.00010638 0.00001038 0.00009831
128 1 2.357788 0.743389 15.313889 -0.02047749 0.03962723 -0.01775959 0.00017753 0.00016282 -0.00007871
129 1 9.125819 5.133819 8.904334 0.01252891 0.01415526 0.02624024 -0.00017980 -0.00006535 -0.00006454
130 1 31.538051 32.435215 22.454101 -0.01854013 0.00616338 0.02854112 -97503.39378126 -45337.19066397 -24061.07170353
131 1 25.110391 26.609553 28.042733 0.04723346 -0.01510471 -0.00774861 -11.36526079 -20.79942495 30.32083950
132 1 19.625218 26.431478 24.537696 -0.07835260 -0.04640297 -0.00514886 0.00012215 -0.00000464 -0.00001710
133 1 11.865755 32.013969 12.716742 -0.03766733 -0.02648082 0.04767737 0.00000097 -0.00001868 -0.00001437
134 1 29.503226 20.401235 6.597255 -0.00104129 0.04423223 0.00810840 -0.00012230 -0.00001173 0.00011700
135 1 27.085736 7.645035 3.023251 0.03372580 0.02531121 0.01835528 -0.00015664 -0.00004914 -0.00010134
136 1 17.999709 17.891329 30.367656 -0.03147780 -0.04330111 0.01355743 0.00003958 -0.00019661 -0.00012968
137 1 6.812929 26.482734 27.518907 -0.00424369 0.05925861 0.00213705 -0.00088010 0.00061816 0.00000452
138 1 7.335447 16.773219 10.152944 0.03350790 0.06750084 -0.04509823 0.00000148 0.00029026 0.00056533
139 1 33.524438 8.803372 6.845204 -0.00254257 0.06914594 0.02652228 -0.00014829 0.00013052 0.00009201
140 1 14.614878 14.930222 1.469334 -0.00862426 0.02535436 0.03053614 -211.30343619 64.55822963 -400.00940466
141 1 14.922805 19.342038 22.272577 -0.01093519 -0.02655887 0.02553682 0.00003815 0.00001084 -0.00005080
142 1 3.250061 30.603648 9.994878 0.02512616 0.02144970 -0.07426040 112.49829242 -214.03644548 142.33614601
143 1 1.898760 29.892948 28.187367 -0.02758479 0.02608420 0.03190888 9.02777239 -6.54981351 2.44440530
144 1 28.863745 0.185908 9.096268 0.03843808 0.07717936 0.04575809 0.00009558 -0.00010142 0.00007726
145 1 13.599355 7.498442 26.827229 -0.01034282 -0.03511726 0.00292255 -0.00011083 -0.00007026 0.00001689
146 1 5.842000 22.531899 7.606596 0.01833297 0.00901785 -0.02996235 0.00015496 -0.00026332 0.00036346
147 1 13.776595 26.536053 5.519801 -0.02516410 0.01290941 -0.03299548 0.00007028 -0.00001301 0.00003399
148 1 31.003489 23.076984 32.683524 -0.00647773 -0.02070809 0.03958653 -0.00008040 0.00000702 -0.00001043
149 1 22.854219 15.630408 19.675572 0.05305609 -0.02847379 0.00352780 -9661798.61730473 -6746381.98261607 -3609929.11410463
150 1 5.249252 19.325782 27.920174 -0.03419076 0.02516287 -0.00977049 -18.60518482 -20.17684136 13.38217531
151 1 27.916342 24.620898 10.362717 0.00316932 -0.00164920 -0.01166955 17123.21941027 9226709.17260020 3957467.49562728
152 1 23.049489 26.081024 19.116578 -0.00613821 0.02197485 -0.01297027 0.00008459 -0.00005920 0.00001425
153 1 12.516659 3.138121 8.798125 -0.01708669 0.03705373 -0.03458796 -0.00186000 -0.00057822 -0.00180073
154 1 16.521205 32.165263 11.589059 -0.02095335 -0.01968831 0.01893272 0.00012973 -0.00002023 -0.00001511
155 1 17.038188 33.532722 18.726796 0.03791410 0.02323357 0.00321355 -0.00028300 0.00034298 -0.00042511
156 1 17.599319 10.766703 8.744858 0.00842740 -0.01703188 0.02309012 -226.65717597 71.88751998 51.44602288
157 1 1.139843 13.376577 22.600015 -0.04513727 0.00659191 0.08576297 -0.00004292 -0.00000233 -0.00009126
158 1 22.463583 24.450802 13.520407 -0.03660097 -0.00117592 -0.02358669 -0.00004586 0.00002636 -0.00006847
159 1 27.256381 29.512239 14.291800 0.00971384 -0.03906114 -0.00831255 0.00006296 0.00022479 -0.00000780
160 1 29.566254 20.497019 13.499756 0.02982449 0.00922332 -0.04280974 0.00027144 0.00004491 0.00007886
161 1 28.389131 7.595365 33.020808 0.05958955 0.00028238 0.03385996 -18.48732154 -34.99279365 34.49436763
162 1 17.248981 18.311639 21.583504 -0.02256209 0.01967652 -0.02815967 -0.00004335 0.00004124 0.00008971
163 1 2.452516 4.078023 16.914042 -0.02538628 0.00660572 -0.00248704 0.00000753 -0.00000368 -0.00008611
164 1 2.128084 12.178995 0.984595 0.00331647 0.03448704 0.00034530 -0.00044431 0.00064176 0.00054285
165 1 19.937322 12.633183 19.313461 0.05886615 0.04032155 -0.00279929 -0.00077870 -0.00059757 -0.00032114
166 1 10.699965 25.521894 17.547263 -0.01952557 -0.01069322 0.03774235 0.00006206 0.00013624 0.00007684
167 1 10.335964 21.746765 21.990153 -0.04881433 -0.07176002 0.01799091 1094071.68105269 -1165143.21252935 -399039.27265565
168 1 16.565147 20.015320 9.905932 0.00436800 -0.02270992 0.00448365 -0.00008725 0.00008918 -0.00003335
169 1 26.745859 9.785876 2.759138 -0.00642405 -0.01542111 0.01859203 -12872700.93768893 638553.79247689 -15801540.15288259
170 1 2.739008 10.259071 28.802749 -0.03229116 0.03511655 0.00079722 -0.00049414 0.00014617 -0.00121442
171 1 27.212649 26.004004 25.273780 0.01794542 -0.04760462 0.01860545 0.00160420 -0.00053234 -0.00200682
172 1 32.111844 26.971074 31.601526 0.03274318 -0.02316007 0.01165137 48035.28368193 -48099.60314573 16167.13263531
173 1 13.671733 32.732769 7.741098 0.03107613 -0.04007919 0.01266548 -0.00000719 -0.00006085 -0.00012440
174 1 15.662574 21.839262 27.010647 0.01075304 -0.02247063 0.05270663 0.00087999 -0.00222095 0.00026556
175 1 23.793371 10.306843 26.084389 -0.01601190 0.02871103 0.03282590 28.34091985 31.71705316 6.08801735
176 1 7.483800 26.372960 24.164369 -0.00864778 0.00453259 -0.01291107 -0.00031167 0.00036078 -0.00030123
177 1 20.923311 9.720348 8.531497 0.04882231 0.01363134 0.02202965 0.00238087 -0.00089006 -0.00005415
178 1 24.288549 25.002837 4.461773 0.00442700 0.00676100 -0.00259501 0.00003898 -0.00006842 -0.00029266
179 1 22.235043 30.577265 22.620468 0.00195046 -0.01348299 -0.01527095 0.00065102 -0.00053820 -0.00015252
180 1 4.339953 23.487917 8.850316 0.02842807 -0.02895061 0.00710107 0.00026668 -0.00031105 0.00021663
181 1 26.001749 5.723100 23.668762 -0.03580969 -0.00140788 -0.00070782 3.61643064 -1.85685470 1.63255936
182 1 8.184933 8.640983 15.398459 -0.01305918 0.02406923 0.00131815 -0.00002015 -0.00012752 -0.00005808
183 1 16.219766 32.764180 9.911850 0.05497891 0.00097367 -0.00249653 -0.00007095 -0.00020497 0.00004562
184 1 23.867554 25.509468 0.783156 -0.05002721 0.00846197 -0.03479822 -0.00000776 -0.00000132 0.00007263
185 1 14.753752 31.244975 7.807526 -0.00304760 -0.04230416 -0.03794486 -0.00007260 0.00011583 0.00011789
186 1 19.702897 23.758773 1.644044 -0.01558944 0.02931840 -0.00562961 -0.00008831 0.00012413 -0.00011028
187 1 27.793661 13.643189 24.321507 -0.01895988 -0.01270719 -0.03289057 -12578.17803266 135949.74678024 77809.33386498
188 1 29.512503 27.487800 15.754054 -0.01546230 0.03453569 0.02635257 0.00004860 0.00015666 0.00018013
189 1 8.471528 18.194839 14.246623 0.03874141 -0.05836955 -0.06962442 -0.00015809 -0.00004552 -0.00010168
190 1 32.713772 23.706753 4.143536 -0.00936238 0.01117228 0.05940971 -0.00003536 0.00007198 -0.00002508
191 1 3.700384 1.640390 14.133064 -0.06394727 -0.01554074 -0.07378416 -0.00001030 -0.00013931 -0.00004811
192 1 30.481260 19.100557 0.168705 0.00530086 0.00708441 -0.01802647 -77.99458268 37.10937582 -19.84289686
193 1 27.300772 12.866995 20.065620 -0.02018309 -0.01844944 0.00797268 0.00010886 -0.00011870 -0.00110351
194 1 32.769404 16.752302 15.487849 -0.00883754 -0.01982791 -0.04640896 -0.00008415 -0.00002896 -0.00005069
195 1 32.063485 9.098262 18.600818 -0.00493553 -0.06666617 0.02192361 -267.01153080 -86.49194466 214.24603837
196 1 9.964118 10.167767 8.167067 -0.01217443 0.01125880 -0.00460302 -157.55792696 86.25282441 96.30199829
197 1 14.831816 9.552380 0.878592 -0.00663820 -0.00103726 -0.02372586 -0.00012490 -0.00012254 0.00013548
198 1 33.033777 32.266951 27.426391 0.03159306 -0.08506167 -0.04200874 -0.00118055 0.00090664 -0.00003766
199 1 29.730646 23.490829 11.159290 0.03451524 0.02581597 -0.04355108 -0.50163628 0.31242960 -0.22026831
200 1 6.388244 29.545095 24.128971 0.00713849 0.03899833 -0.01849608 0.00006792 -0.00039722 -0.00016420
201 1 21.827306 20.667921 20.588666 -0.00617146 0.03320572 0.00873589 -0.00006137 0.00032040 0.00014200
202 1 15.855738 10.052285 15.356324 0.01590812 -0.02977609 0.07529363 -0.00000979 0.00003463 0.00000269
203 1 13.714323 23.029368 18.339041 0.07720012 -0.00685466 -0.03835820 0.00021459 0.00004336 -0.00026035
204 1 26.870231 33.975070 4.504306 -0.02239948 0.01855863 -0.00418854 -0.00007602 -0.00004706 0.00006573
205 1 29.631261 25.757914 20.933915 0.01464054 0.00180787 -0.03883051 -0.00005971 -0.00023066 0.00008770
206 1 22.939845 7.056280 25.411113 0.00788260 0.02644890 0.04745613 -1109.08131336 421.97054254 659.96881572
207 1 31.139461 26.092686 2.241245 -0.00699324 -0.01655801 0.05789313 -609019.95600578 3185749.73424015 -2159353.59019820
208 1 12.410287 8.888903 11.957708 0.01951090 -0.02763525 0.02212248 0.00019577 -0.00008757 0.00062359
209 1 13.198934 17.417672 10.645024 0.04104220 -0.01774352 0.02867428 -101.29091438 -95.95824087 57.19390291
210 1 7.427510 16.061803 23.908361 0.02145765 -0.02639191 0.02736187 -0.00000504 -0.00005847 -0.00012564
211 1 20.428308 11.320701 31.421417 -0.01421809 -0.01840108 0.00981134 -0.00010383 0.00013277 0.00006322
212 1 12.950772 3.746178 2.650599 0.03419260 0.02322435 0.03620358 0.00034814 -0.00045389 0.00122120
213 1 25.782699 18.573153 18.066348 -0.02082687 0.03901992 -0.01060201 0.00078695 0.00049493 -0.00017353
214 1 26.436823 9.561043 2.235474 -0.01112803 -0.04216851 0.02222126 4461558.89997660 3245923.20910400 7560167.17150264
215 1 24.243258 4.057004 15.140003 -0.03570543 0.02403425 0.02570567 0.00004850 0.00025593 -0.00010572
216 1 7.025269 24.674271 16.632206 0.00716435 0.00658895 0.02214354 -0.00010505 0.00002265 0.00000925
217 1 32.337291 16.662631 15.969438 0.00413750 -0.04028327 -0.03348974 0.09711145 -0.36359429 -0.47393339
218 1 14.103961 5.520673 23.834867 -0.01456388 -0.03592912 0.00962065 -1046.22847662 1056.02920218 4675.69034887
219 1 10.176448 4.424583 7.855907 -0.02342850 0.02409546 -0.07212071 -0.00007234 -0.00024533 -0.00000205
220 1 5.461014 24.637598 33.571828 -0.04423884 0.01182563 0.00419285 0.00005244 -0.00007069 -0.00024614
221 1 23.239120 2.134235 1.653445 -0.00418522 0.03782741 0.08204276 -256.35125052 213.84151824 108.70831742
222 1 3.482944 7.004678 3.308795 0.05966834 -0.02127226 -0.02753286 1927.54998782 -1342.30534266 1167.74988029
223 1 29.205256 32.652241 15.197452 -0.02078579 0.01652965 0.03025733 -0.00002426 -0.00012149 -0.00016832
224 1 3.654976 18.070969 24.712211 -0.00895417 0.01212352 -0.01982983 -0.00013790 -0.00000688 -0.00162426
225 1 14.041634 15.814859 14.772206 -0.04364397 0.01138462 0.00180146 -11269578.01996882 9933810.67419066 -1105356.64981759
226 1 19.335079 18.898867 27.247362 0.00416759 -0.00104719 0.01647704 -0.00007484 0.00010390 0.00001917
227 1 23.130655 27.287991 27.393789 0.03760471 0.03362912 -0.01924340 0.99701099 -0.34182077 0.32665916
228 1 8.871186 13.233725 25.029246 -0.00163289 0.05799259 0.07459050 -0.00000322 -0.00010801 -0.00006466
229 1 4.218024 12.026005 19.760907 -0.01926950 0.01511139 0.01182379 0.00003034 0.00006793 0.00004417
230 1 13.679358 27.720715 33.225671 -0.04947162 -0.06301924 -0.01499018 0.00020262 0.00004181 0.00011987
231 1 19.835846 26.554501 5.646159 -0.03711936 -0.07348802 -0.01567542 -0.00007038 -0.00003434 0.00016015
232 1 28.302289 0.388356 33.396505 0.00107694 0.03123240 0.06506429 5150227.90294420 -4247941.31972652 -3356272.06391876
233 1 0.567070 27.035434 4.338014 -0.01854243 0.04984519 -0.01246210 -0.00115895 0.00085568 0.00026087
234 1 16.554928 12.537249 33.714137 -0.03199218 0.02276118 0.07309763 0.00140833 -0.00147259 -0.00129286
235 1 14.659435 3.642752 20.438907 0.01107512 0.01844486 0.00487597 5.14792201 -4.06093770 -3.03596726
236 1 25.815732 7.663465 0.869954 0.05012547 -0.03043266 0.01231769 4738.51573628 -3916.32041726 2049.02687316
237 1 17.851194 16.204093 0.215690 0.06852219 0.05192445 -0.09980220 0.00128580 0.00072129 -0.00122532
238 1 5.167067 20.088645 14.006972 0.01744160 0.05638665 -0.00294260 0.00005484 0.00009336 -0.00006361
239 1 5.204360 19.675259 33.573062 0.00230405 -0.04378536 0.02238496 -3.83179710 -0.85437047 -1.92731575
240 1 7.170824 27.625192 19.104325 -0.00182032 -0.00210439 0.02443722 0.00014497 -0.00016003 0.00000168
241 1 25.615641 1.182981 29.924983 -0.02353747 -0.02556480 0.01628537 -0.00054817 0.00020078 -0.00060956
242 1 32.848422 30.288567 14.562201 0.03355042 0.00969341 0.01442717 -8155.06785573 -7613.63057030 1623.27866797
243 1 20.101993 11.874085 8.153260 0.01262982 -0.01927543 -0.01830331 -0.02297649 -0.01028549 0.00564358
244 1 8.878881 3.631598 5.133181 0.00188042 -0.00682471 -0.03238550 -0.00009577 -0.00026510 0.00014103
245 1 29.017349 2.272143 14.325275 0.03727207 0.04622944 0.00175149 0.00004192 0.00000954 -0.00021203
246 1 3.167941 21.652679 12.500846 0.03118750 -0.07193658 -0.06512946 -0.00017048 -0.00000898 0.00012600
247 1 29.756778 4.506027 3.092963 -0.04324032 -0.02376376 -0.07282475 0.00040342 -0.00036570 0.00019210
248 1 11.282665 3.330342 13.347832 -0.02542815 -0.01400561 0.04997381 -0.00096994 -0.00023711 0.00056669
249 1 24.940522 13.128705 12.040452 -0.00157501 0.00819565 -0.00193169 -0.00008146 -0.00000290 0.00007804
250 1 18.147082 28.421576 33.379723 -0.04003187 0.03561438 0.02229065 0.00020414 -0.00009774 -0.00011177
251 1 1.038252 11.889327 5.742526 -0.05371666 -0.01088236 -0.03549909 -0.00004907 0.00016329 -0.00002121
252 1 10.314370 25.980274 33.543140 0.00545734 0.01013059 -0.04832694 0.00042750 -0.00051150 0.00007398
253 1 13.719776 1.594324 25.786409 -0.02551069 0.03997848 -0.00936138 -0.00012783 -0.00101801 0.00051077
254 1 26.324448 31.324067 0.495563 0.01212470 0.01618201 -0.01406968 -0.00059847 -0.00121062 0.00035244
255 1 30.583228 16.753736 18.863855 -0.01857570 -0.02632743 0.02119109 -0.00118502 0.00019767 0.00216186
256 1 2.181210 9.641715 16.526409 0.00414989 0.02691271 0.04325094 0.00039128 0.00014341 -0.00014936
257 1 33.492384 19.405621 33.864043 0.00398994 0.02311104 -0.00727595 -0.00236097 -0.00019453 0.00071426
258 1 30.611874 32.025856 19.973870 -0.00489824 0.03583199 0.00042215 0.02097730 0.00718707 0.05221954
259 1 16.398051 31.517199 17.370277 -0.00472642 -0.05983047 0.00179239 -0.64655562 5.74364738 -1.03517578
260 1 0.902153 31.713291 4.135489 -0.00225917 0.03540399 -0.01208205 -0.00003280 0.00021762 -0.00012587
261 1 32.777086 3.684129 10.224522 0.01014436 -0.02319167 -0.02161268 25.88535127 34.90020738 -82.32866751
262 1 13.690200 0.116904 13.934421 -0.02259306 0.04472635 0.00485691 103125.33369146 -15575.54275798 538654.43306326
263 1 26.957205 24.339405 20.866467 -0.00337629 0.02832073 0.02126593 -0.00007822 0.00004830 -0.00019160
264 1 0.705393 27.370263 8.123317 -0.03628168 -0.00819303 0.01568215 -0.00073581 -0.00073379 0.00005229
265 1 13.856522 5.770360 24.939185 -0.03911740 -0.00446824 0.02773745 1046.90377443 -1056.41231905 -4672.32017332
266 1 16.029015 23.806077 25.569962 -0.03807056 0.01331669 -0.01548530 -0.09325000 0.10177407 0.06708412
267 1 33.718318 7.620172 0.643296 0.01415893 -0.01608114 -0.00207203 -0.00025758 0.00005186 -0.00005537
268 1 19.327305 10.032491 24.361109 -0.01278628 -0.00483196 0.04736083 -0.00091911 0.00021852 -0.00022207
269 1 30.594959 23.569564 33.270137 -0.03240718 0.01473873 -0.04632773 -0.00059660 -0.00130970 -0.00063372
270 1 22.944481 10.211366 10.125101 0.00873789 0.01915105 0.00660569 0.00037579 -0.00014750 0.00002072
271 1 4.868185 19.251304 27.934948 0.00847629 0.01678669 -0.06816565 -125.73607840 -200.82728040 139.79121556
272 1 32.349335 10.925278 29.366925 -0.02153962 -0.00665494 -0.03244696 -105763.99156575 213156.44398002 27040.72011096
273 1 28.990662 9.521297 6.357475 0.00001066 -0.02491962 0.05203545 0.00073164 -0.00014232 0.00128700
274 1 13.670024 5.598212 6.340249 0.00213533 0.00589690 0.02108899 -0.00008780 0.00007597 -0.00042694
275 1 5.237410 2.875349 34.288123 0.03433230 -0.05317580 -0.00848877 12.53924122 5.89011479 5.49219157
276 1 18.669268 6.317537 4.249326 0.07753005 -0.02569925 0.00685387 0.00011003 -0.00002760 0.00017739
277 1 7.712293 13.484301 3.361629 -0.01514095 0.00329168 -0.06366551 -0.00014091 0.00166944 0.00227856
278 1 21.157908 33.452872 16.792911 -0.01333999 0.01026871 -0.01817262 0.00033641 0.00019339 -0.00016733
279 1 16.395074 2.890226 34.255405 -0.02246350 -0.04084878 -0.07308726 0.00017094 -0.00008225 -0.00015288
280 1 1.504491 11.665575 14.123621 0.01266958 0.00568814 -0.02739574 0.00015406 -0.00006312 -0.00009840
281 1 17.865581 9.913254 11.451346 -0.05161159 0.01136990 0.03226018 -0.00145445 0.00555014 -0.01712109
282 1 27.105105 16.900751 26.608907 -0.00459605 0.05270740 0.00798638 -0.67334881 -13.78459917 11.73242386
283 1 24.610795 17.401339 25.130865 -0.01846628 -0.00073972 -0.00242781 0.00722477 -0.00103167 0.00457556