ITEM: TIMESTEP
0
ITEM: NUMBER OF ATOMS
2619
ITEM: BOX BOUNDS pp pp pp
0.0 32.547792
0.0 32.547792
0.0 32.547792
ITEM: ATOMS id type x y z vx vy vz fx fy fz
1 1 17.411399 31.714794 29.278095 -0.00093284 -0.01113863 0.01654257 0.00011897 -0.00013405 -0.00013951
2 1 1.701341 27.845150 8.124214 0.02884118 -0.04799185 0.01453300 0.00003744 -0.00017484 -0.00000089
3 1 29.516248 0.022682 9.214990 0.07241304 0.01379186 -0.01968388 -142256.97509373 269288.49153132 73492.56981072
4 1 29.160612 0.765140 9.387183 -0.02346676 -0.00427088 0.04126749 134187.79961268 -280163.32756489 -64930.35749640
5 1 32.338554 31.024206 30.639758 0.02886408 0.00198726 0.01572976 -42.38407621 -15.51838190 13.88296469
6 1 18.994138 23.424064 14.986134 -0.03436243 0.00511174 0.03363058 -0.00011004 0.00011941 -0.00004062
7 1 29.648979 2.282440 16.332780 -0.02151975 0.04201614 -0.01598234 -0.00010602 0.00000086 0.00011753
8 1 18.547853 31.771886 6.480446 0.05821222 -0.01011039 -0.01050150 -0.00014839 0.00006769 -0.00012215
9 1 24.879897 8.002031 22.215238 -0.02825342 0.06145566 -0.05680937 -0.00009636 0.00004052 0.00012837
10 1 22.713726 27.400808 19.545687 0.00198350 0.05201432 -0.05586867 99.90933647 -114.16028879 -8.98426015
11 1 17.402106 27.066408 8.311176 0.01466091 0.00005416 -0.02381468 0.00002427 0.00021517 -0.00002327
12 1 2.208524 0.581494 31.206814 0.02638935 0.01236428 -0.02530636 0.00119407 0.00118205 0.00032856
13 1 25.496790 32.199162 15.250341 0.00936797 0.02294481 -0.00743250 0.00017350 -0.00003651 0.00010289
14 1 7.800950 0.162114 28.643126 0.01192337 0.05698403 -0.02966392 -0.00004504 -0.00011322 -0.00005105
15 1 17.492226 0.156679 22.189067 0.05333859 -0.00490902 0.07110544 0.00003559 0.00002244 -0.00000498
16 1 15.487826 18.169673 26.049375 -0.01755215 0.03450729 -0.04885409 -0.00000227 0.00002820 0.00007075
17 1 10.394433 9.434178 2.372454 0.01072198 -0.03646535 0.00574793 0.00007499 -0.00002821 -0.00005767
18 1 1.888046 10.299032 11.161032 -0.00281389 -0.00710259 -0.00046615 0.00000497 0.00007485 0.00002866
19 1 9.068391 29.299596 14.644720 -0.01887622 -0.00029173 0.01373841 0.00009731 0.00013774 0.00001088
20 1 31.722705 31.563897 25.494641 -0.03932072 -0.07057029 0.04953612 -0.00010254 0.00014554 -0.00021230
21 1 1.068529 18.332991 0.615306 -0.02892595 0.00074572 -0.02259811 0.00014201 0.00001872 0.00010051
22 1 29.988214 5.143614 18.321563 -0.00957900 -0.02323926 -0.02712014 0.00016076 -0.00012023 -0.00004969
23 1 31.002721 7.444560 31.591597 0.04761191 0.00827648 -0.00275321 0.00004397 -0.00001612 0.00014241
24 1 19.173765 21.198220 0.583041 -0.01020958 0.02023345 0.01039754 0.00007552 -0.00006325 -0.00022316
25 1 28.300724 19.126565 13.694351 -0.05942547 0.00839282 0.01717439 -0.00000526 -0.00015991 0.00000865
26 1 29.600034 8.979588 14.242224 0.03412323 0.02356715 -0.01809724 -0.00006551 -0.00000378 -0.00016052
27 1 18.220323 14.160870 15.021319 -0.01000784 -0.06290869 0.00657923 -0.00001667 0.00007549 -0.00008951
28 1 18.158615 28.773071 14.385347 -0.02680765 0.01095527 -0.06035638 15.03798317 -10.47786291 30.56847302
29 1 32.529974 27.745253 31.721739 0.01589897 -0.03968492 -0.01864155 0.00006711 -0.00233920 0.00072295
30 1 8.476862 25.194163 28.941981 0.03495455 0.03795994 -0.02321602 -0.00011382 0.00006232 0.00014395
31 1 11.122304 15.715160 9.439713 0.00988914 0.04382725 -0.00388882 2524.14768943 9506.33743545 -1488.91412294
32 1 3.100422 31.036333 27.702807 -0.02244455 -0.03510819 -0.04024382 -155.43554199 57.71963863 192.68852854
33 1 3.187507 26.868470 2.921130 -0.00044635 0.01518355 -0.04777078 18948.05062113 39268.11405959 -20902.62272284
34 1 12.889682 2.940214 0.739756 0.00747296 0.01215636 0.01960970 -0.00000913 -0.00004227 -0.00017395
35 1 7.443685 3.622529 3.524645 -0.00679567 -0.05718537 0.07493619 0.00011552 0.00000645 -0.00005376
36 1 8.645780 17.215134 21.353658 -0.06265301 0.05284514 -0.03183603 -1414120.94726128 2166221.96023438 -513312.03782684
37 1 9.439891 22.261453 28.424937 -0.00001820 0.00801445 -0.01090323 -0.00005835 -0.00001795 0.00021117
38 1 26.144552 15.202536 12.795388 0.01537804 -0.01240848 0.03391677 -0.00000501 -0.00004203 -0.00004653
39 1 16.544119 12.771210 18.543594 0.01705223 -0.00436613 0.05795058 102862901.62879543 103844563.42588833 2654167.31692726
40 1 12.581746 21.519320 18.872565 -0.01105790 -0.02540470 0.00064338 0.00023287 -0.00008794 -0.00011390
41 1 22.894777 22.878867 28.553360 0.01139769 0.03642160 -0.07637482 -1.31026507 1.67940939 0.16332924
42 1 15.439872 5.269645 26.414597 -0.00730150 -0.00001296 0.02328626 0.00018746 -0.00009966 0.00012009
43 1 7.154560 13.036464 31.078324 0.08119415 0.04517895 0.02116724 0.00009874 -0.00001913 -0.00005290
44 1 19.620921 18.418662 17.183146 -0.05086142 0.00021807 0.03746836 2.29649857 3.47823540 3.77099938
45 1 30.818034 6.240246 27.506567 0.00934037 0.01418453 -0.01769067 0.00002730 0.00010762 0.00001424
46 1 6.460270 15.764523 16.804528 -0.00610431 0.00478769 -0.03161201 -0.00001067 -0.00025688 -0.00016257
47 1 2.899794 20.043879 20.443592 -0.02197461 0.00032360 -0.01209838 -0.00009472 0.00003635 0.00008436
48 1 31.965056 22.418335 9.354106 0.00962162 -0.00511842 -0.06432638 -0.00011861 0.00002444 -0.00001883
49 1 25.415523 13.894215 28.881276 -0.02257113 0.02066610 0.00984203 0.00014450 0.00013411 -0.00014565
50 1 22.969648 4.692277 3.134430 -0.02945180 0.00179825 0.04917023 0.00014876 -0.00006945 -0.00011342
51 1 20.365022 2.274839 31.028851 -0.00492192 0.00674303 0.00319987 -0.00006408 0.00000676 0.00014974
52 1 9.430300 10.661825 24.861114 -0.05240831 -0.01438292 -0.04749448 -0.00008532 -0.00003564 -0.00008197
53 1 4.341386 10.976463 29.538810 -0.01352907 -0.00538775 -0.00074109 0.00009321 -0.00000169 0.00021586
54 1 16.443818 30.888051 15.696136 -0.03901998 0.02908940 0.01333265 0.00222245 -0.00279929 -0.00187740
55 1 7.269452 28.489380 12.424900 0.06145557 -0.01246554 0.04593082 -0.00001268 -0.00000629 0.00000700
56 1 2.464574 29.533923 8.290743 0.04294238 -0.04149691 0.04626796 -751.34926179 5037.88077912 -798.87319545
57 1 28.800613 26.434244 32.369826 0.06222231 -0.02646077 -0.05849410 -0.00007490 -0.00005767 -0.00010594
58 1 12.914791 8.205969 12.144281 0.03139779 -0.06909894 -0.01347573 -0.00010292 0.00013369 -0.00007500
59 1 15.595535 13.076024 17.703102 -0.03105996 0.03593593 0.00964811 -7513792.73946952 14183908.73379177 -18633987.58941045
60 1 2.395049 6.202332 0.045867 0.01574007 -0.00389922 -0.03868520 0.00000587 0.00003900 0.00024103
61 1 3.453110 19.426951 29.570929 0.02323923 0.00282857 -0.00936985 -0.00011095 -0.00000213 -0.00013236
62 1 8.140143 21.638523 24.519184 -0.00747172 0.02233739 -0.00848391 37965.89797018 28266.57921317 -26705.51092245
63 1 23.809964 11.172898 12.283204 -0.00036176 0.00506354 -0.01441740 126.89405361 162.31005484 -392.80389533
64 1 14.842324 19.687405 9.947605 0.00214207 0.03484722 0.02392088 0.00023074 0.00008137 0.00012908
65 1 29.569768 31.184387 21.918734 0.01568442 -0.00671217 0.05039658 -0.00003707 0.00003071 -0.00005943
66 1 24.252338 17.435435 12.288123 -0.00680759 -0.03589963 -0.00667285 0.00018064 -0.00008251 -0.00003326
67 1 12.757477 25.769683 0.869663 0.01844503 0.02546295 0.01922992 0.00006507 -0.00004671 -0.00007805
68 1 27.983266 24.167242 27.181519 0.05314171 0.00728994 -0.05567519 0.00012937 0.00010500 -0.00003818
69 1 24.470994 5.681224 12.001413 -0.05656079 -0.01599473 0.01250110 0.00005327 -0.00020827 0.00003541
70 1 19.659165 2.999821 8.634304 0.02698789 0.03167596 0.05076755 -0.00011476 0.00003656 -0.00023894
71 1 22.576032 25.802165 5.549729 -0.02019320 -0.01016202 0.00198216 -0.00013339 -0.00004502 -0.00005239
72 1 1.301707 0.742257 25.649253 -0.01145055 -0.02521741 0.06178904 -0.00106304 0.00146894 -0.00151142
73 1 3.380374 13.486922 2.927164 0.01592351 -0.02148915 -0.04622923 -0.00002745 -0.00002192 -0.00003560
74 1 30.452120 29.251800 1.307349 -0.03681752 0.06171626 0.04918601 -0.00080825 -0.00063570 0.00110528
75 1 5.491244 8.910477 30.015040 -0.02679890 -0.00973574 0.04512153 154.37125949 -31.56445116 -179.16501195
76 1 23.267488 5.120714 14.824935 -0.02965404 0.03376337 -0.01190285 0.00009074 0.00010709 -0.00004503
77 1 10.182915 22.338370 32.232463 -0.00720343 -0.01583703 0.00393198 0.00013868 -0.00010132 0.00009520
78 1 19.073453 29.518270 15.870830 -0.00371441 0.02161639 -0.01099584 -3.72298150 -3.03248417 -6.04503602
79 1 17.233123 25.006039 2.054826 0.01056829 -0.01720534 0.03288366 -210126666.28122562 111005111.10367976 -65018491.30505809
80 1 21.178550 4.213047 32.177479 0.03051080 -0.02721262 -0.00062624 0.00005737 0.00015392 0.00017970
81 1 6.416842 20.884358 13.118763 0.01669046 0.04808461 0.00155955 -0.00009014 -0.00020214 -0.00005281
82 1 25.970228 11.773925 14.150348 -0.02956769 -0.01529378 0.02517973 -0.00813431 -0.00215523 -0.00701921
83 1 19.415612 0.646877 10.989423 -0.04747035 0.01468748 -0.00349283 -0.00005252 0.00024161 -0.00009542
84 1 1.191950 11.167133 9.442893 -0.00136747 0.02465659 0.00821518 0.00013952 -0.00024626 0.00004392
85 1 15.770102 12.292306 23.659346 -0.01481880 0.02607498 0.03852717 -0.00012830 -0.00001681 0.00059726
86 1 1.882996 27.533346 11.272891 0.03571044 0.01300109 -0.01978659 -0.00042420 -0.00143744 0.00192816
87 1 15.096233 1.425375 21.211110 0.00758677 0.01804477 -0.05409989 0.00005451 -0.00011122 0.00003804
88 1 27.588410 18.923497 29.827199 0.04604087 -0.01225087 -0.03479705 20.49390026 -33.89222490 0.89336453
89 1 4.205871 7.043036 1.868213 -0.00801882 -0.00683008 -0.01640661 -585284.53264107 -423198.05874199 -122981.46125658
90 1 18.267776 28.614168 13.986864 0.02199915 0.01923680 0.00599905 0.77250736 -2.70661790 4.16671160
91 1 31.894531 15.362265 3.669786 -0.00516134 0.05798103 0.01828806 -0.00011191 -0.00011915 -0.00009814
92 1 23.511110 16.347429 1.387987 0.04178462 -0.02491438 -0.02363947 -0.00005616 -0.00020028 0.00002499
93 1 2.277498 22.566636 31.836173 -0.04017988 -0.02003683 -0.04847888 -0.00003139 -0.00018739 -0.00007180
94 1 13.620922 31.837758 22.603160 0.03749282 -0.05984379 0.03442190 -2221.92726739 -1308.19606483 -2098.89086918
95 1 21.772789 28.696472 9.023509 0.06001063 0.03231901 0.01510564 0.00006890 0.00008126 -0.00013132
96 1 22.385566 18.197311 1.562378 -0.00570495 -0.02733444 -0.00493158 -1.32335223 -2.40831376 -2.13225976
97 1 19.433379 10.496259 9.803107 0.01116083 0.02656207 -0.01288145 -0.00015636 -0.00003970 -0.00021264
98 1 19.998770 26.415930 26.925316 -0.00968605 -0.00057429 -0.01632496 -0.00030772 0.00032598 -0.00035179
99 1 31.861301 24.653920 9.323642 -0.00365871 -0.06068367 -0.00222464 0.00006532 -0.00026594 0.00004175
100 1 16.820889 15.886143 32.167687 -0.00119197 0.03529753 0.03435899 0.00014139 -0.00008590 -0.00005809
101 1 23.574293 22.125601 14.588255 0.01829671 -0.01942800 0.02645986 -0.00000885 0.00008303 0.00006955
102 1 12.824007 8.083456 25.736077 -0.04005724 -0.03469037 -0.01627137 -0.00003267 0.00010122 0.00018827
103 1 21.573296 3.321335 31.617061 0.00254198 -0.02913100 0.04969907 0.00000196 0.00013767 -0.00020771
104 1 7.433599 13.056026 31.933258 0.00347058 0.03031777 0.01538346 0.00010647 0.00037714 0.00016260
105 1 18.677670 17.309522 2.981895 -0.00734954 0.05043139 -0.00350827 -43.26716287 6.92071757 2.80075555
106 1 26.091425 14.015013 15.226081 0.00900244 0.02017285 -0.03538303 0.00039827 0.00054789 0.00035120
107 1 7.701715 13.025892 28.933033 -0.00433050 -0.05852769 -0.01277337 0.00032809 0.00048889 -0.00017465
108 1 19.555010 20.438108 20.018223 -0.01329633 -0.01663881 -0.01148796 -0.00010911 0.00157151 0.00226015
109 1 0.295156 19.490536 7.280732 -0.03663637 0.03124191 0.03069413 -0.00003495 0.00000181 0.00006460
110 1 15.028908 4.335939 29.090676 -0.01912421 -0.00649364 0.02265373 -0.00003223 0.00013534 -0.00004015
111 1 13.090373 17.146938 5.280728 -0.02670531 -0.02267893 -0.01255127 -1594234.45996273 -13348851.95590436 -11593596.15922762
112 1 0.032980 21.029375 12.141284 -0.00485331 0.06004930 0.01063413 -0.00014009 0.00012085 0.00005023
113 1 12.024485 7.062829 20.876940 0.06573087 -0.01242032 0.01220140 0.00006876 0.00006423 0.00013998
114 1 14.879539 24.754914 24.146046 -0.00287606 0.02652821 -0.05867527 42470.15155374 28425.08334328 -46819.11238641
115 1 6.566007 29.984536 29.026335 0.00565673 -0.01619915 -0.06468088 0.00175318 -0.00044920 0.00075688
116 1 9.092520 16.620500 8.640967 0.00847069 -0.05229392 -0.05071657 0.33119736 -0.14798273 0.13050714
117 1 27.885072 27.481440 15.798623 0.03945909 0.00682910 0.03410681 0.00006390 0.00016701 0.00005507
118 1 24.325385 4.952269 28.483690 -0.03991331 -0.00026528 0.00117186 -125.46836551 -62.10305376 -12.74994433
119 1 4.044682 13.595247 14.411950 0.07131857 0.00711071 0.01880553 -0.00006149 0.00021184 0.00012775
120 1 26.432050 7.497525 27.871968 -0.03675549 0.00124978 0.02108073 0.00149456 0.00183876 -0.00029962
121 1 12.386750 14.659316 27.860596 -0.06332891 -0.03043525 0.00376222 -177.56233241 49.82750415 83.63950999
122 1 17.050104 9.012748 3.334755 -0.06692559 0.00570957 0.01151097 -0.00008346 0.00008480 -0.00016623
123 1 32.342820 8.817944 2.285422 0.04228764 -0.07189976 0.03789620 -13140.40136820 -8153.84606941 15333.52586731
124 1 29.353320 17.878911 11.903288 -0.02310881 0.01513914 0.02999079 -0.00007865 -0.00003253 -0.00005543
125 1 16.501360 6.455323 7.599517 0.00088827 -0.04665641 0.04817728 0.00003438 0.00015538 0.00003774
126 1 9.323776 10.289225 25.577389 -0.00474642 -0.02124189 0.01355845 90.04978989 -109.91748742 -7.81657702
127 1 5.837555 2.124144 28.947817 0.03776562 0.00448695 -0.01498824 0.00042693 0.00036464 0.00014307
128 1 13.562714 23.512651 25.411504 0.01515194 -0.02591031 0.05065794 0.58897018 0.55539799 -0.56579643
129 1 8.584796 4.089924 25.399489 -0.04331909 0.04121024 0.00225979 0.00019786 -0.00008897 -0.00017633
130 1 1.027829 6.710336 28.719810 0.04779215 -0.01753895 0.02249016 -0.00031258 -0.00012258 -0.00026211
131 1 8.862995 5.545973 3.117124 0.01706619 -0.01840089 -0.05066003 0.00033308 -0.00006258 0.00019957
132 1 7.626512 9.065388 29.659243 0.06034227 0.00900006 -0.02485912 -1.23821910 -0.09009947 0.20669421
133 1 28.588750 29.510005 7.131980 0.04482994 -0.00348272 0.02037183 -0.00054281 -0.00224144 -0.00141834
134 1 4.314056 24.059391 14.501059 0.01226436 -0.06096054 0.05130235 -0.00001838 -0.00004691 0.00010793
135 1 12.443607 6.456423 24.148551 0.02580895 0.05326844 -0.04324393 0.00016410 -0.00018041 -0.00003952
136 1 10.333208 18.463342 23.641143 -0.01258584 -0.02756477 -0.02209735 277.75896455 -5553.18624319 -267.69003230
137 1 9.709975 4.851706 24.009344 -0.03760783 -0.04599603 -0.00332957 0.00006548 -0.00001591 -0.00023631
138 1 29.670507 6.843871 24.362597 -0.02422301 -0.02295121 0.02188943 0.00009408 -0.00010458 -0.00010609
139 1 6.283328 4.389609 2.577320 0.00383317 0.02177226 -0.04674713 0.00173905 -0.00197437 0.00047703
140 1 14.555157 24.775339 15.474474 0.00159425 -0.00132490 -0.00428889 -0.00011509 -0.00031386 0.00016694
141 1 31.921117 11.628115 29.537494 -0.01211998 -0.06465183 -0.04179638 -0.00006822 -0.00000903 -0.00007371
142 1 4.763517 15.429420 9.487109 -0.02661239 -0.00358018 0.05428843 -0.00006256 -0.00008684 0.00003931
143 1 21.536223 5.705163 10.934863 0.02699475 0.01746313 0.04551889 -459318.56030193 -53561.91427705 422524.18053667
144 1 15.453190 13.549165 0.058665 -0.01305296 0.02616744 0.01127418 -0.00005731 -0.00006741 -0.00003125
145 1 19.968343 1.869871 6.573304 -0.08675584 -0.00034173 0.01765340 -0.00005617 -0.00012056 -0.00009574
146 1 14.010679 3.549333 19.802200 -0.03113233 -0.05897686 0.04525957 0.00003697 0.00026308 -0.00011620
147 1 24.606047 30.151113 7.276169 0.02061322 0.04066311 0.05746417 -117026.60695300 46778.17133640 -41055.66552535
148 1 29.150329 22.225766 1.678189 -0.03616355 0.03133453 -0.01209258 0.00017451 0.00023074 0.00025741
149 1 4.914197 30.574839 12.466451 -0.00532806 -0.02733412 -0.03322764 7.75411201 -44.81901688 -10.92219064
150 1 31.469154 20.458353 24.132078 0.04091840 -0.05265274 0.00963755 -0.00004261 0.00003355 -0.00013008
151 1 18.360835 10.572766 15.336640 -0.02507746 -0.01382117 0.01797061 0.00075844 -0.00100240 -0.00121745
152 1 25.557795 28.735688 29.186817 0.04428999 0.00256386 0.03952736 -0.00000654 0.00013566 -0.00011735
153 1 27.229114 13.295600 23.580634 0.03720472 0.01616783 -0.05897654 44.37145756 28.64238798 -14.36717433
154 1 18.318579 18.258198 0.347517 -0.00752391 0.00700029 -0.00764775 0.00175024 -0.00739226 0.02024332
155 1 17.168807 8.820175 2.135716 -0.01782636 0.01196793 0.04349447 0.00001935 0.00015919 -0.00002750
156 1 22.754342 26.581455 27.971877 -0.00090021 -0.01104861 -0.00588790 -0.00018323 0.00207227 -0.00038437
157 1 17.863592 12.788511 0.145154 -0.03705089 0.02081288 0.01909860 0.00006014 -0.00030458 -0.00001898
158 1 2.106484 25.808922 19.004509 -0.00287311 0.01256051 -0.01712082 0.00004869 -0.00004561 0.00008742
159 1 7.886564 31.261951 20.939595 -0.03217735 0.02454367 -0.01075770 -0.00018454 0.00009260 0.00007838
160 1 9.834024 3.131933 22.756828 0.01740220 -0.04092659 -0.06069044 -0.00010517 0.00034329 0.00001488
161 1 2.546484 25.871631 29.675809 0.00452058 0.01439302 -0.02303723 -0.00007410 -0.00041028 -0.00016354
162 1 6.246926 25.636711 3.363819 0.00557864 -0.04296627 -0.00810738 0.00202596 -0.00104067 0.00034905
163 1 31.274177 15.011041 4.455502 0.00595756 0.01449665 0.02803175 0.00000613 0.00005733 -0.00008586
164 1 0.036527 16.100587 3.903164 -0.00858073 0.03116475 -0.07085064 -0.00004808 0.00006944 0.00011401
165 1 15.959488 16.547899 31.105674 0.01968546 -0.00057908 0.01297417 1229963.01288164 -1633198.29923685 -1939787.79281377
166 1 3.137882 18.221991 23.443350 -0.00237777 0.02678045 0.00539418 -7.09605849 -0.71676513 1.34689204
167 1 18.492707 19.961990 29.026685 0.04020756 0.06236137 -0.00696616 0.00008676 0.00016601 -0.00026054
168 1 22.358889 19.241461 9.679583 -0.04486960 0.04254962 -0.01817108 -0.00002290 -0.00008112 -0.00009945
169 1 25.100731 3.188981 29.851769 0.00700545 -0.01281792 0.01558812 -0.12579626 0.28611949 -0.22202419
170 1 10.398490 23.193135 14.091711 0.03337370 -0.02792241 0.02111759 0.00017128 -0.00003499 -0.00013528
171 1 21.391601 16.977438 30.827949 0.01307561 -0.00632240 -0.03711269 43566.66222153 -184040.76644341 58139.25853411
172 1 13.055117 16.656625 4.907776 -0.00111310 0.02750732 0.01279814 1016346.87061018 14134639.50252894 10751386.32556457
173 1 29.444958 17.734684 7.751457 -0.07117626 -0.00422621 0.04649840 -0.00013488 0.00002147 -0.00013817
174 1 12.915750 5.654031 3.836281 0.00851583 -0.01000366 0.02390827 32.81685337 -19.68614632 -10.63719557
175 1 19.226147 9.716108 1.200642 0.00027697 0.00582340 -0.00478400 -0.00000961 -0.00001899 0.00000712
176 1 14.510640 30.656878 11.245660 -0.03820798 0.06245697 -0.04013291 -0.00048684 0.00025431 -0.00036905
177 1 16.759742 23.788653 23.143862 -0.00282883 -0.01658161 0.01534884 -0.35470632 0.18231538 0.18905489
178 1 5.990785 30.215798 1.512555 -0.00257424 0.03408665 -0.03237499 -74.13241232 -205.96188038 -202.48492963
179 1 7.567230 26.265602 0.339271 0.01893247 0.02087285 -0.01560272 0.00054382 -0.00089896 -0.00017982
180 1 29.555668 17.755281 26.027419 0.01777729 -0.01357741 0.01926940 799758.00548675 919381.56702821 -2159380.94422591
181 1 4.875694 2.104088 1.957363 -0.05691523 -0.00924702 -0.01399554 -0.00016628 0.00046079 0.00010554
182 1 12.462245 19.969768 18.089789 -0.00918584 -0.05612134 -0.00608964 0.00003409 0.00008533 -0.00013469
183 1 9.261554 8.328974 12.659131 0.05954870 0.03373702 -0.00798508 0.00003555 -0.00005221 0.00011077
184 1 14.286177 13.684370 23.499714 0.00003452 -0.00504737 -0.03248340 0.00043755 -0.00017357 -0.00028858
185 1 27.921922 29.144935 16.744733 -0.01995883 -0.03499753 -0.09292423 0.00015405 0.00007689 -0.00003133
186 1 17.940510 24.984570 10.812649 0.02737765 -0.00117335 -0.02688385 3244230.35792432 -404068.62360158 1886145.43782846
187 1 18.192891 26.215443 20.862208 -0.00164715 -0.00821311 0.07764744 55.78605991 31.93856424 -16.18547174
188 1 21.321242 16.700513 5.310430 -0.02117539 -0.02221436 -0.03910148 1259713.63508520 120302.61219072 -2438445.33684919
189 1 13.811341 30.734288 13.242114 -0.03262369 0.00970775 -0.01496178 -0.00075892 0.00041821 0.00003155
190 1 16.341570 11.545425 9.185991 0.01513707 0.01098409 0.03379007 -0.00007027 0.00003169 0.00013049
191 1 17.169938 17.638542 16.118600 0.00767798 -0.04229793 0.00934384 0.02542941 0.00850911 0.01061463
192 1 21.032849 17.160463 0.314577 0.01213435 0.03893426 -0.01001363 1.57237956 0.68773299 -1.21843814
193 1 8.291822 4.969827 3.064821 -0.02784460 0.05435303 -0.00088737 -3108.26097365 8094.56932298 10174.06528435
194 1 10.525182 27.227490 21.554417 0.07246132 -0.00412739 0.02013332 -1141.77134259 208.84249663 363.33553470
195 1 25.077966 0.574918 23.354740 0.07888831 0.04176767 -0.02738784 -0.00004341 0.00000236 -0.00015103
196 1 15.471613 24.505932 22.833341 -0.04552482 -0.02932206 0.00084473 -96.69234139 40.66007192 214.37754785
197 1 7.282593 16.209785 26.731597 -0.02427558 0.02852549 -0.05491044 -0.00056614 -0.00036449 0.00064939
198 1 25.554368 2.129520 7.524588 0.00388964 -0.03148396 0.03471161 -0.00115482 0.00092320 -0.00079815
199 1 23.636779 26.368351 18.975024 -0.00903303 0.00085934 -0.02319503 -106.58029869 119.21293065 65.89155352
200 1 8.030930 27.049468 15.571719 -0.02783456 -0.00487347 0.00924738 0.00003780 -0.00017047 0.00006099
201 1 4.443876 7.058978 28.704893 0.02831854 0.04541851 0.00600946 0.07098630 0.12554180 0.08858838
202 1 18.251700 14.236017 25.129199 -0.00941877 0.00606606 0.02469242 -0.00015296 -0.00006585 0.00012668
203 1 6.556218 23.014945 14.734201 -0.03172927 0.03756915 -0.00142347 0.00006043 -0.00015374 0.00013497
204 1 15.865319 25.761873 19.121289 -0.02193996 0.03888742 0.06398851 0.00723009 0.00112997 0.00505100
205 1 28.261713 23.413314 20.709901 0.01724511 -0.00398528 0.02493433 0.00006238 0.00012204 -0.00002877
206 1 8.486804 14.829141 28.032986 -0.03393516 0.00609768 0.06808324 122.91702592 306.45597215 178.40949250
207 1 25.103634 5.896420 12.059973 -0.02634349 -0.03639684 0.01017944 3541.52329671 139.88270263 708.10072692
208 1 19.426280 17.469410 11.970594 -0.06908227 0.05840494 0.01320488 0.00006014 -0.00008199 -0.00006847
209 1 21.183889 9.068266 1.791384 0.03976939 0.02886991 0.01879968 0.00001154 -0.00003151 0.00014122
210 1 23.060760 24.504177 30.204440 0.01804731 0.00787080 0.02897884 -0.03494193 -0.34159630 -0.34743390
211 1 11.488779 30.120707 3.115682 -0.02190042 -0.00192672 -0.03383818 -0.00009720 0.00024541 0.00007992
212 1 23.686204 28.476910 3.513319 0.04163941 -0.01749924 0.01597318 -0.00034890 -0.00043601 -0.00128810
213 1 30.275736 18.874985 17.118157 0.05798063 0.02785787 0.00963161 0.00003708 0.00005113 -0.00007960
214 1 6.790600 23.698682 22.658709 -0.03536465 0.02398314 -0.02702860 0.00048447 -0.00115050 0.00095568
215 1 6.293645 11.886801 10.943166 0.05818086 0.01744920 0.01845680 0.00010063 -0.00007101 -0.00007666
216 1 13.647147 29.014619 25.740787 -0.01500054 -0.02221642 -0.02854332 -0.00013969 -0.00019533 0.00131846
217 1 19.489832 5.743183 22.765579 -0.02585454 -0.06274069 -0.02152777 -0.00004818 -0.00008185 -0.00004983
218 1 23.066555 10.336305 15.883818 0.00852495 -0.04319670 -0.02680636 24.13421907 -18.44395208 -20.97718119
219 1 13.284875 31.733878 9.511305 -0.05921865 0.00665272 -0.03554520 -0.00003609 -0.00004098 -0.00010545
220 1 31.452049 14.452581 30.275458 0.00628478 -0.00817704 -0.05628447 0.00010846 -0.00003871 0.00021254
221 1 1.816483 11.062047 5.264095 -0.05182283 0.00427449 -0.03367802 0.00055759 0.00079389 0.00069859
222 1 30.055529 17.875888 23.722681 -0.00264295 -0.04861157 -0.00541722 -0.08175897 -0.01951572 0.37712764
223 1 19.054404 15.418617 31.112548 -0.04210424 0.03662728 0.02659755 3.63811128 9.61730547 19.28659539
224 1 12.737175 26.532471 0.243524 -0.01268595 -0.00815567 0.01466222 183.93230703 -78.16968529 -518.52170219
225 1 32.171156 30.886615 12.419916 0.02359531 -0.06375539 -0.04732797 0.00017589 -0.00035008 0.00102076
226 1 4.386390 16.824245 8.954747 -0.01682590 0.03686468 0.05445398 -0.00001783 -0.00004423 -0.00003278
227 1 17.772692 27.678795 9.076194 0.06851153 0.02872979 0.00558927 42.90260859 -27.08798222 -9.92980124
228 1 26.507564 0.422360 25.538239 -0.00818652 -0.01848749 -0.00129516 12395562.08273420 17129407.57884611 -36261083.07376146
229 1 9.771928 20.741607 0.224072 0.02420885 -0.01895582 -0.02830683 -0.00002591 -0.00007747 -0.00005721
230 1 7.760934 10.609061 23.233245 -0.02562582 -0.01166344 0.00334355 0.01110117 -0.00235184 0.01665784
231 1 1.776978 26.617546 23.775210 -0.04384533 0.01725195 -0.05008530 -0.00012619 -0.00012457 -0.00013080
232 1 27.018750 23.430680 28.987826 -0.03396159 -0.02872034 0.02336413 136901.11130202 -129106.59462394 383684.11981203
233 1 7.906377 26.244267 10.569909 0.03353808 0.00571077 0.03891190 -1606.56782176 809.23372212 2337.78454937
234 1 9.550767 19.183553 27.516663 0.03635003 -0.01245342 0.02224820 0.00024535 0.00046424 0.00262349
235 1 9.790812 5.317577 22.339542 -0.03597174 0.01619013 0.07515786 0.00015869 0.00007305 -0.00015110
236 1 21.511013 25.085079 24.722497 0.01667929 -0.00658839 0.00328233 0.00000391 0.00014164 -0.00024562
237 1 28.671222 4.869371 15.053885 0.04489735 -0.00835270 0.00723466 0.00040327 -0.00035097 0.00052673
238 1 17.536731 13.480313 30.297043 -0.01788602 -0.03594458 0.01688252 0.05690814 0.06872810 0.02949322
239 1 8.283477 14.628172 31.892975 -0.01850035 0.01787443 0.05270467 -1165.12489604 -5.34901905 -10.06229206
240 1 18.342184 15.477265 13.308030 0.01753624 -0.00181469 0.06357042 -0.00009164 0.00002874 -0.00060608
241 1 25.398344 3.365128 19.912245 -0.00526626 0.02938419 -0.00718681 -0.00001061 0.00004181 -0.00003714
242 1 12.213103 0.756228 3.918416 0.03187507 0.01827929 -0.02193020 0.00000542 -0.00039377 -0.00008418
243 1 19.050400 9.931255 1.709703 -0.01116010 0.01441754 0.02739334 0.00024019 0.00003709 -0.00011023
244 1 7.284314 7.881039 25.979964 -0.02064975 0.03417744 0.00446375 -0.00015262 -0.00075332 -0.00048717
245 1 2.808658 20.644088 6.999895 -0.05053909 -0.01600045 -0.00380435 0.00001816 -0.00007084 -0.00020900
246 1 26.570584 4.335634 11.544423 0.02677780 0.00037551 0.01915205 -0.68103489 0.72506168 0.23970077
247 1 2.922336 3.768127 2.412110 0.02392991 0.00978536 -0.04059032 -0.00110422 -0.00228608 0.00044429
248 1 27.942012 17.457102 27.887829 0.03933021 -0.04210664 -0.01514146 2.10353664 -0.04255668 7.39672075
249 1 13.058971 29.881055 29.042050 -0.03572182 0.05366280 -0.04442827 0.00004908 0.00029257 -0.00035857
250 1 26.584548 6.228412 29.214761 -0.10011280 -0.00041051 0.02121875 -0.04252242 -0.02388637 -0.01368793
251 1 31.668273 18.717113 27.933908 -0.07415997 0.00975205 0.01822927 -0.00110529 -0.00111005 -0.00338669
252 1 14.093277 14.723016 31.682702 -0.04642955 0.08155292 -0.00026836 0.04084492 0.03976471 -0.01144294
253 1 21.477232 7.014804 10.929460 0.03279733 -0.05429725 -0.00369751 44.29840619 -983.49448217 4.05665767
254 1 4.822403 20.643313 19.616963 0.02265701 0.08884893 -0.06582881 -0.00018724 0.00042842 -0.00048651
255 1 21.287719 9.136480 7.252867 -0.01461567 -0.04122029 -0.04612809 -17.21902577 97.71240306 3.95610783
256 1 28.789002 1.064473 3.422160 -0.02329814 0.02315635 -0.00910933 0.00006598 -0.00003576 -0.00011591
257 1 5.357341 30.820749 16.875320 0.01473966 0.01153667 -0.01024451 0.00034835 0.00003760 0.00102785
258 1 16.069120 12.824441 14.805858 0.03670682 0.00100631 0.01536151 -0.00173421 0.00081647 0.00627678
259 1 19.587779 16.437186 18.412458 0.02398430 0.01520578 0.00552353 0.00711499 0.39277005 -0.24340730
260 1 2.491947 0.811229 26.371106 -0.00098172 -0.01175212 0.00264180 0.00831262 -0.03114656 0.01782366
261 1 23.714159 1.667545 25.914464 -0.01613982 -0.00337558 -0.04167644 0.00151119 -0.00156581 -0.00112320
262 1 19.787358 19.147722 1.929717 0.03038256 -0.03579362 0.02718383 -0.12469430 -0.25617521 0.13867709
263 1 22.978963 30.580884 7.101342 -0.03445888 0.01505255 0.02602430 33.69517892 -8.90007153 3.62042594
264 1 25.031820 22.255244 0.559462 -0.02267859 -0.01065255 -0.03880880 2.73763723 4.61528989 -62.30635363
265 1 12.915753 16.943721 29.175370 0.04900071 0.06830746 0.00346390 -0.01234882 -0.04476646 -0.02711552
266 1 10.580388 15.390338 14.953843 0.03630994 0.01713361 0.04748315 3821.99405517 -12870.51578618 6201.69511660
267 1 7.761280 24.099839 15.116280 -0.01009217 -0.02870667 -0.03848025 -0.00005699 -0.00026048 0.00042853
268 1 2.390940 21.067878 28.585252 0.00736185 -0.01204851 -0.01750253 0.00002278 0.00021405 0.00029385
269 1 10.626260 24.079476 30.520466 -0.01900724 0.00920832 -0.03962680 -0.00108467 -0.00106197 -0.00084383
270 1 20.170554 22.787525 9.767409 0.02413158 -0.06272071 0.00940914 1038.01916326 -1548.30829707 1396.71491425
271 1 9.741699 14.374637 24.348220 -0.00548467 0.04191018 0.01235501 0.00049630 -0.00118234 -0.00181923
272 1 31.690544 2.018905 12.656262 -0.00002311 0.02757954 -0.01125549 0.00095839 0.00055633 0.00137790
273 1 19.272065 14.651680 25.926037 -0.00601188 0.02759569 -0.04112783 0.00011362 -0.00011395 -0.00044609
274 1 27.772000 1.175178 17.231329 0.01983937 0.00001129 -0.01117519 1835.75790428 3853.83912244 3783.06903315
275 1 22.527888 29.879250 30.469198 -0.02137380 -0.01237471 -0.02462006 -0.00004989 -0.00000100 0.00005269
276 1 23.036319 0.781883 17.854957 0.00253051 0.02192972 0.08697861 -0.00057928 0.00015266 -0.00000904
277 1 3.565000 14.074534 1.321664 -0.02834536 -0.03231095 0.00665542 -0.00054156 0.00024068 0.00013340
278 1 28.899383 30.992170 3.572095 -0.05875765 -0.01744149 0.04590396 -995.98630993 2589.57436219 1736.15679850
279 1 17.396074 9.240440 21.118329 -0.01426727 -0.05315042 0.01857104 0.00012254 -0.00088170 0.00072875
280 1 4.401224 14.676009 23.085598 -0.02099875 0.02610230 0.05047493 0.00032331 -0.00223056 -0.00012700
281 1 0.811512 23.320562 28.854920 0.01701734 0.01772548 -0.01028287 0.00009897 0.00001491 -0.00016451
282 1 29.655763 29.874380 20.617033 0.00728772 0.00493616 0.02368141 0.00013251 -0.00013097 0.00000278