ITEM: TIMESTEP
0
ITEM: NUMBER OF ATOMS
3547
ITEM: BOX BOUNDS pp pp pp
0.0 37.542368
0.0 37.542368
0.0 37.542368
ITEM: ATOMS id type x y z vx vy vz fx fy fz
1 1 15.249184 21.558136 22.242937 -0.02488963 -0.03093617 0.00283132 2926.73731579 -820.77057257 -5921.78059271
2 1 18.888873 26.054717 4.844306 0.05701685 0.02572960 -0.06353566 -0.00005116 0.00023755 0.00004196
3 1 24.701499 27.487509 8.962578 -0.00248906 -0.00681682 0.01860388 0.00006843 0.00001899 0.00006529
4 1 33.314509 32.993916 14.414705 0.02737154 0.03405549 0.02309261 -0.00006433 -0.00006652 -0.00013161
5 1 23.782784 25.725429 22.254357 0.03558703 0.00949017 -0.02252299 0.00001624 -0.00001243 0.00015776
6 1 36.213039 14.818323 17.050399 0.02696073 0.00005794 -0.00362819 -0.00008710 -0.00009251 0.00017255
7 1 32.491355 19.445992 14.147596 0.01196624 0.00494735 0.01635859 -0.00008619 -0.00006633 0.00010675
8 1 0.588740 8.412110 16.813737 -0.04884736 -0.02848144 -0.00252930 -191979.27095567 -1347547.67064636 -140811.05914834
9 1 16.884916 4.021978 3.477495 -0.01161307 -0.03801283 -0.04422399 -2.30226123 2.66171041 7.32176900
10 1 13.241899 6.617128 2.791638 -0.01446840 -0.08222583 -0.00908321 -0.00057615 0.00048614 -0.00002978
11 1 14.024349 33.219160 8.302604 0.00514597 0.00497183 0.02972757 -0.00012171 0.00003961 0.00006815
12 1 27.605952 16.378884 6.533377 -0.00900750 -0.03011874 0.03263631 0.00007167 0.00022471 0.00010336
13 1 8.293686 29.161481 21.111528 -0.01083784 -0.00004372 0.06898882 5.99590920 -22.35745479 -4.30307079
14 1 26.336449 4.547815 24.108941 -0.07580960 0.01434388 0.01838846 -0.00016123 -0.00014799 0.00006900
15 1 21.883902 34.857843 7.717531 0.00890666 -0.00754622 0.02160759 -0.43172440 0.20584081 -0.33437630
16 1 10.870548 21.862912 31.531023 -0.02617499 0.01617819 0.07426343 9251.30783267 -10849.97169204 1372.81768533
17 1 1.719649 29.321311 19.678573 0.00318760 0.02991191 -0.00614578 -230.64584820 3.91917685 62.34812920
18 1 0.987116 5.878745 37.163220 -0.04596855 -0.04191147 0.03757645 0.00014117 -0.00013504 -0.00004280
19 1 2.664161 15.661407 11.821710 0.04163563 -0.02262611 -0.01749676 -0.00006697 -0.00018457 -0.00003580
20 1 17.544234 0.602676 24.377737 0.00942178 -0.03497092 0.02381403 -0.00001197 -0.00004049 -0.00002117
21 1 10.513804 4.033161 1.164035 0.00469243 -0.00058593 0.01587743 0.00000093 -0.00002473 0.00005215
22 1 25.760536 11.358789 0.856182 -0.03047437 -0.01061333 0.01947895 -776607.92316975 -449047.58898099 190515.95075512
23 1 18.956621 2.696814 7.731285 0.01301798 0.00911367 0.01813858 0.00007680 0.00001282 0.00044747
24 1 8.720710 28.843053 15.917857 0.04354444 0.00467213 0.00161426 -0.00012933 0.00007324 -0.00036404
25 1 5.074919 11.506373 2.068354 -0.01786288 0.00819149 0.01433964 -0.00002678 0.00001734 -0.00000170
26 1 9.713991 27.282021 36.200172 0.01089462 0.02829546 -0.01558033 -0.00008247 0.00005532 0.00000907
27 1 12.181801 8.137443 16.741951 0.01981604 -0.02806834 0.02838966 -0.00008930 -0.00007481 -0.00002288
28 1 8.430869 18.532434 12.422601 0.02342484 -0.00086831 -0.04285765 0.00006722 -0.00004476 -0.00000632
29 1 35.055824 4.089826 7.905525 0.01175313 -0.00068754 -0.00924382 -0.00003250 0.00002304 0.00002425
30 1 20.424464 5.941389 15.464693 -0.02649139 0.08395512 0.01291194 -0.00004213 0.00002711 0.00003447
31 1 24.384011 4.465542 23.130254 -0.02597022 0.01894815 0.00365369 -0.00007616 0.00013062 0.00019484
32 1 27.777063 27.888898 20.165037 0.01053358 -0.02949388 -0.00413835 0.00011220 0.00001201 -0.00007587
33 1 21.502762 3.112432 8.172812 0.04335400 -0.01978330 -0.03427054 0.00006749 0.00014476 0.00002922
34 1 2.823080 16.738702 29.250788 0.00002212 0.01241724 0.04088712 -0.00006458 -0.00005141 -0.00002634
35 1 19.551827 25.115162 30.347492 0.03878039 0.04340930 0.01877245 -0.00010101 -0.00015380 -0.00002946
36 1 8.978009 13.387027 2.313940 -0.06158621 -0.02931213 -0.02280912 0.00014093 0.00010779 -0.00003129
37 1 25.569816 22.018121 30.423204 0.03711448 0.01890796 0.03523926 0.00022904 -0.00009427 -0.00007594
38 1 1.567032 22.178286 22.813415 -0.05890198 0.03736140 0.00611285 -771.57719346 -275.45930999 657.66257420
39 1 1.472951 6.861600 19.074601 0.05278732 0.07508620 -0.04055455 -0.00458769 0.00781003 -0.01133400
40 1 21.205944 34.123863 22.281927 -0.01117096 -0.00036410 -0.01725007 -0.00001232 0.00000443 0.00005467
41 1 27.344396 21.235583 27.846297 -0.01024285 0.04238611 0.00420268 0.00009750 -0.00003204 -0.00005205
42 1 5.151136 9.024745 26.709565 0.04199289 -0.02709204 0.03593744 0.00004857 -0.00015060 0.00013052
43 1 34.767146 5.125783 8.741244 0.02162552 -0.01599041 0.05322393 -0.00006863 0.00005825 0.00005272
44 1 4.305102 20.542282 37.021288 -0.00198470 -0.09470621 -0.00700802 193.75047753 -5239.06517397 -1995.68269516
45 1 21.304977 36.143947 22.034623 -0.02801826 0.05832332 -0.04174567 0.00005650 0.00000355 -0.00007446
46 1 12.922219 9.789643 21.670611 0.04109623 0.03442013 -0.01981156 -0.00007709 0.00005373 -0.00000550
47 1 20.050767 5.770572 29.143062 -0.02670599 0.00739929 -0.04011245 0.00013315 -0.00003458 0.00012230
48 1 29.215551 15.121471 6.860049 -0.02515699 -0.00682308 0.00638255 -0.00001490 -0.00015673 -0.00006610
49 1 37.281453 11.644703 18.663091 -0.03003999 0.02532227 -0.01306073 -0.00053527 0.00177386 0.00078585
50 1 2.642031 34.359790 36.776239 0.03119427 -0.01802036 -0.02820821 -0.00009826 0.00022164 0.00006927
51 1 23.559514 37.428449 18.307355 0.04366368 -0.04038688 -0.05940280 -0.00025661 0.00005903 0.00012821
52 1 37.426807 24.441543 0.783470 -0.05038565 0.01956681 0.00768464 -0.00000741 -0.00001290 -0.00002307
53 1 30.685833 22.807280 3.174977 0.03810747 0.04492004 -0.02431915 -0.00001415 0.00000053 0.00009901
54 1 28.216093 26.279017 8.753440 -0.03437004 -0.03242706 0.03940700 -0.00012473 0.00016536 -0.00005858
55 1 29.476597 14.170580 22.049743 0.02358301 -0.00101193 -0.00289607 0.00020539 0.00004442 -0.00009834
56 1 0.096181 20.282596 13.537936 -0.04110645 -0.01959550 -0.01441551 0.00003231 -0.00008234 0.00002296
57 1 0.672160 28.840453 20.666123 0.01965361 -0.05878717 -0.02932434 100.43048050 46.10340529 -94.68382817
58 1 9.068084 2.942179 30.180966 0.02909156 -0.03412393 0.00810669 -0.00011987 -0.00013615 -0.00005841
59 1 13.519843 27.807353 22.450921 0.00465911 -0.01758394 -0.07642264 0.00007948 -0.00006307 -0.00006477
60 1 7.465804 0.325032 15.215340 0.01183472 -0.02902551 -0.03475378 -0.00022186 0.00002904 -0.00004467
61 1 18.532112 32.030753 20.948976 0.01155172 0.01831851 0.01461446 0.00012000 0.00000085 0.00012371
62 1 9.050910 31.441246 11.481229 0.00111118 0.04611422 0.00115149 -0.00018592 0.00012159 -0.00002823
63 1 35.621589 14.271802 22.320674 0.00383874 -0.02814961 -0.06623951 -0.00005220 0.00003057 -0.00018533
64 1 29.640586 17.564725 33.968796 0.00815246 -0.01969981 0.02225156 -11183842.99537034 9066920.45449107 -6640393.63237499
65 1 7.854975 12.275878 19.897328 -0.05269450 0.00882077 -0.03057487 0.00000420 0.00004143 -0.00008226
66 1 26.766335 35.812131 13.364737 0.00273392 0.01811329 -0.02373999 -4.21979271 -11.21147211 -18.66420505
67 1 24.856122 13.844758 25.590200 0.07903423 0.04030709 0.06547141 -0.00005915 -0.00001508 -0.00002357
68 1 30.226944 29.357101 30.646346 0.04397875 0.01504205 -0.04253363 0.00008761 0.00011033 -0.00006207
69 1 4.832244 27.171075 1.716454 0.03393396 -0.06228856 -0.02683358 0.00002409 -0.00011414 -0.00000199
70 1 29.493607 14.744355 9.868946 0.00834842 -0.00414396 0.01536510 0.00007697 -0.00009405 0.00004737
71 1 36.426284 5.041936 20.813591 0.00814612 0.00603592 0.02205607 -0.00000484 -0.00010743 0.00008459
72 1 23.853977 26.845599 15.084010 0.00802685 0.02787611 -0.01625894 0.00013868 0.00009411 -0.00000923
73 1 0.731091 36.503255 35.188636 0.01881492 0.04156416 -0.01776542 0.00001498 -0.00018624 -0.00014228
74 1 3.103510 8.160304 29.528127 -0.01367147 -0.02808220 0.01294098 -0.00011444 -0.00002227 -0.00018245
75 1 22.354073 21.878243 23.385619 -0.00352030 -0.05049114 -0.01903691 0.00010038 -0.00005208 0.00009955
76 1 2.952125 26.089038 12.680311 0.07079938 0.02840040 -0.04057296 0.00007313 -0.00008101 0.00009551
77 1 7.617924 11.532402 26.653744 -0.00726437 0.04648573 0.00397263 -0.00010712 -0.00001886 -0.00010996
78 1 17.298064 24.497780 9.660234 -0.00022815 0.00804291 0.00418086 -0.00011122 0.00016113 0.00003981
79 1 4.067928 8.144971 4.187823 -0.03777288 -0.00160902 -0.01962734 0.00005027 -0.00010853 0.00001184
80 1 26.340167 2.117211 27.923259 0.01333319 0.04031305 -0.08006260 0.00018758 -0.00015303 0.00000753
81 1 33.738183 25.046322 33.894673 -0.04249680 -0.01728505 0.01564214 -0.00026679 -0.00002377 -0.00002367
82 1 0.760424 14.159848 0.749714 -0.00876554 0.01171606 -0.04634357 0.00008350 0.00016809 0.00012209
83 1 7.660858 5.442920 12.552459 0.00206288 0.00492014 -0.04975722 0.00008911 -0.00008072 0.00001382
84 1 27.926516 14.268728 17.503945 -0.03427740 -0.06698788 0.00789613 0.00009979 -0.00006663 0.00005058
85 1 7.821157 23.756214 22.810802 0.04415771 0.05676168 0.01025388 -344.75870077 -316.71305227 2326.94403200
86 1 15.075576 37.016433 30.418941 0.01122146 0.01575987 -0.02459564 -0.00009096 0.00012453 -0.00010289
87 1 18.801479 5.824170 35.168733 0.00236821 -0.00527292 -0.00912399 -3176.09988376 -3847.43266967 3208.54631052
88 1 4.954521 20.346266 35.706302 -0.04074770 0.03841262 -0.03132501 -321.33278443 -321.65010860 535.67606136
89 1 17.103643 30.636534 5.188571 0.00143470 0.03449181 -0.04297349 0.00001666 0.00003363 0.00012456
90 1 24.619644 7.811521 33.318239 0.02598658 -0.02882645 0.01556073 0.00006938 -0.00010348 -0.00002304
91 1 3.478525 3.901576 5.591510 -0.03924632 -0.03724393 0.04024773 -0.00000849 -0.00002157 -0.00006180
92 1 2.528656 15.877882 23.175644 -0.00111824 0.01338160 -0.00732595 -0.00012340 -0.00021396 0.00011546
93 1 8.202935 5.335870 26.533914 0.04987058 0.00384127 -0.00696631 -0.00001320 0.00003751 0.00000054
94 1 6.114079 15.486710 3.855416 -0.02830743 0.00773242 -0.03421130 -0.00000950 0.00011807 0.00010273
95 1 34.937619 0.988903 6.502403 -0.03409339 -0.00901331 0.04815138 0.00002918 -0.00007760 -0.00011349
96 1 29.464055 12.043777 6.562048 0.03935516 -0.00317480 0.06098460 -0.00002716 -0.00002957 0.00006438
97 1 36.027770 25.498794 1.587047 -0.00580281 -0.01551476 -0.01681634 0.00001699 0.00009137 -0.00016051
98 1 4.064077 20.751868 12.757838 -0.00437657 0.00272500 -0.00621685 0.00005957 0.00001088 0.00011288
99 1 8.810678 25.937445 10.309126 -0.03796677 -0.03371993 -0.03510283 -0.00009562 -0.00002166 -0.00007502
100 1 24.930572 34.740931 36.436622 0.03543471 0.03297429 0.05779611 -0.00002396 0.00017715 0.00018486
101 1 22.336879 25.606956 23.288522 -0.05826822 -0.02888749 0.00217062 0.00002876 0.00003835 0.00010747
102 1 25.571862 18.749596 8.892114 0.02721649 0.01243033 0.02138644 0.00012686 -0.00010343 0.00001683
103 1 20.893935 0.989717 25.315733 -0.03471544 -0.06802031 0.02301720 -0.00004432 -0.00016665 0.00011919
104 1 34.687771 29.596885 26.106427 -0.03196344 0.01840773 0.05707997 -0.00001089 -0.00016105 0.00004862
105 1 21.893866 11.347825 23.034039 -0.00850077 -0.00691979 -0.02610092 0.00012636 0.00002478 0.00012145
106 1 9.750034 11.240737 34.293899 0.03666035 -0.00849548 -0.01253683 -0.00004277 -0.00002909 0.00010053
107 1 36.922181 10.421247 23.822996 0.03934529 -0.02516141 0.04303577 -0.00005242 -0.00016843 0.00015060
108 1 3.072513 30.026870 9.362590 0.01887155 -0.00309127 0.01846113 -0.00015500 0.00002543 -0.00010176
109 1 6.070559 25.508013 1.433154 -0.01740936 -0.01683263 0.04413328 0.00012152 0.00027758 0.00022410
110 1 8.020993 7.068027 31.923970 0.01603249 0.00639342 -0.01356096 0.00023721 -0.00006488 -0.00001557
111 1 9.997647 21.707492 14.981967 0.07777208 0.01234780 -0.00693625 0.00027493 0.00010214 0.00008729
112 1 34.770761 26.778105 9.249762 0.07965138 -0.04078522 0.04661130 -0.00005611 0.00001420 0.00004284
113 1 28.469556 1.662600 7.216696 0.03296779 0.01253089 0.03147401 -0.00005610 -0.00011648 -0.00010303
114 1 15.284016 18.513721 10.917077 -0.01112493 0.01436178 0.04747195 -0.00015658 0.00005319 0.00001361
115 1 37.374703 35.826358 27.121015 -0.05112257 -0.03319300 0.04043479 0.00010914 -0.00013659 0.00003861
116 1 1.374280 27.628242 25.722148 0.02419345 -0.03643590 -0.01779564 -0.00000735 0.00021908 0.00009121
117 1 9.569561 16.957276 4.356858 -0.01048440 -0.03346506 -0.00305575 0.00001210 0.00013365 -0.00002680
118 1 34.078546 12.011305 35.838791 0.04101805 0.06060507 -0.00330687 70.42156696 406.27839137 816.74700058
119 1 35.151068 2.786721 10.081426 0.02732837 -0.00622522 -0.02072605 -7.02614380 -7.38413939 -4.21030484
120 1 33.213626 21.082584 0.191371 0.00391613 -0.02175738 -0.00743271 0.00006108 -0.00000433 -0.00001161
121 1 4.592984 33.438322 29.933022 0.07892421 -0.01583735 0.01819123 0.00006019 -0.00012963 -0.00005864
122 1 35.037514 22.429496 9.268932 0.03263766 -0.02983526 0.03220121 -0.00004956 -0.00005481 -0.00016141
123 1 2.701867 21.530647 18.745511 -0.01409504 0.05990457 -0.01392955 -18765.86411271 27061.16640810 13034.10743920
124 1 10.255658 32.711182 12.084640 0.00534889 0.01317317 -0.01295177 -0.00008305 -0.00025478 0.00000742
125 1 27.802116 20.440551 33.211254 -0.00035769 0.08833978 -0.03316010 -0.00124409 0.00226906 -0.00062550
126 1 0.290883 6.363454 34.643823 0.01457589 0.03125539 -0.02207947 -0.00012829 -0.00012209 0.00005891
127 1 3.724595 5.562138 33.207651 -0.02754645 0.02505643 0.00372417 -0.00004059 0.00002289 0.00015186
128 1 3.973265 7.934667 24.481737 -0.05447053 0.01610992 -0.04285588 32897.69887801 -46014.30527664 2939.43876348
129 1 17.768576 36.685830 34.668530 -0.02831058 -0.00916203 -0.00221201 0.00008324 0.00013730 -0.00012920
130 1 6.200512 24.408661 18.274262 0.01389967 0.02129973 -0.02529605 0.00056091 0.00041169 -0.00061255
131 1 2.090093 36.984990 32.196514 -0.04834287 -0.03411213 0.00542958 -0.00005552 0.00008302 0.00000418
132 1 36.866283 32.898844 7.602223 0.05854078 0.06188134 0.00203296 -0.00005846 0.00009033 0.00000509
133 1 3.659063 15.512424 3.315382 0.01307345 -0.02860635 -0.01655868 0.00007471 -0.00019063 0.00017976
134 1 16.959755 19.967623 36.206170 -0.03000886 0.04825932 -0.00848479 -0.00002890 -0.00005721 0.00006257
135 1 17.280290 26.600173 20.249180 0.02641575 -0.03519573 0.02008236 0.00021260 0.00018054 -0.00009971
136 1 16.849585 6.371624 8.554358 -0.02351321 0.00986853 -0.02330970 -15.35235281 38.07542026 -8.34197329
137 1 29.943880 27.531056 0.489076 -0.02361093 -0.02603435 0.03866277 -0.00011154 -0.00006631 0.00007162
138 1 7.089288 4.192654 30.190775 -0.01389713 0.00600493 -0.01465146 -0.00004744 0.00007323 -0.00009818
139 1 7.396884 34.242832 36.301507 -0.01703596 0.02752830 0.03334816 0.00000255 -0.00009497 -0.00003859
140 1 16.091930 28.523364 4.113123 -0.02020551 0.01362082 -0.02543874 0.00002482 0.00004998 0.00008254
141 1 22.365106 2.206951 22.981032 0.00646342 -0.04331522 -0.03890608 -0.00009902 0.00000769 0.00002155
142 1 14.546061 31.219680 10.948554 -0.01496098 0.01196958 -0.02006691 -11772.95780907 42984.13010095 -9916.39266522
143 1 12.637951 30.132388 14.010783 0.00080960 -0.01377803 0.03038244 -0.00092069 -0.00054051 0.00153409
144 1 31.285280 36.778606 21.395982 0.02653992 0.01761340 -0.03753773 -0.00004022 -0.00001031 -0.00004051
145 1 20.895061 25.617169 6.529426 0.04530331 0.03751398 0.07365329 0.00004633 -0.00016358 0.00002342
146 1 26.167248 10.245419 25.207701 0.02160766 0.03852582 -0.00427454 -0.00002750 0.00006151 -0.00002776
147 1 32.722172 15.731130 31.671594 -0.01950044 -0.02382715 0.03409628 0.00092682 -0.00040799 -0.00066354
148 1 11.466207 9.214887 35.696017 -0.01446261 -0.00609009 -0.04658000 0.00016604 -0.00003411 0.00000535
149 1 4.168988 23.791301 6.435526 -0.02477095 -0.05403605 -0.02813919 -0.00003142 -0.00002388 -0.00000294
150 1 24.311316 23.992703 28.218284 -0.02295877 0.02926235 0.00239737 0.00004672 -0.00007342 0.00008979
151 1 20.616913 18.974142 34.123133 0.02121914 -0.00997408 0.01294349 -0.00018777 -0.00002003 -0.00003314
152 1 2.880068 22.593374 10.764961 0.01058461 0.01373668 0.03302210 -0.00014121 -0.00007352 -0.00000194
153 1 30.656028 1.103595 25.467467 -0.04626150 -0.01954121 0.02232023 0.00022753 -0.00010224 0.00013358
154 1 24.744689 8.884558 7.504097 0.07119164 -0.00397745 0.01319163 -0.00008412 0.00021573 0.00004136
155 1 10.431518 20.457906 4.005356 -0.03611397 0.04810589 0.00230213 0.00000558 0.00013359 -0.00004068
156 1 16.153327 11.414421 35.687149 0.05208502 -0.04360152 -0.03163735 -0.00008324 -0.00005971 -0.00003013
157 1 17.811566 21.659985 27.395779 0.02308255 0.05361088 -0.05484563 0.00000642 -0.00001833 0.00023345
158 1 12.068147 29.076718 24.475450 -0.04324333 -0.04001753 0.00895115 0.00039243 0.00016971 0.00022128
159 1 8.434174 32.282959 30.901173 -0.01373291 0.06270357 0.03409292 0.00014214 0.00005922 0.00009375
160 1 9.564809 16.386862 18.103447 0.02694776 0.02017031 0.02396179 0.00009122 0.00007146 -0.00000497
161 1 16.818111 36.692850 4.953677 -0.03477149 -0.03737585 0.00698604 973.55721769 4261.98217352 2323.80276225
162 1 28.401370 1.433058 22.633986 0.07776157 -0.04731283 0.01516002 0.00007983 0.00010910 -0.00000151
163 1 10.264504 6.194441 34.435138 0.03138093 -0.00191664 -0.01572212 -0.00002915 0.00000788 0.00019296
164 1 22.677261 35.528947 28.475101 0.10947739 0.03238375 0.05184229 0.00010182 0.00015539 0.00000761
165 1 29.133929 35.561551 26.772076 0.02041204 0.00771868 0.02578493 -0.00007824 -0.00001469 -0.00018567
166 1 23.140756 31.081098 35.560586 0.07539609 -0.05423174 -0.04241994 0.00002644 -0.00007540 -0.00014115
167 1 30.368949 10.322263 34.266057 -0.04984348 0.00509064 -0.02114221 -0.00070751 -0.00036622 -0.00040027
168 1 31.331024 32.284497 15.706493 -0.03985995 -0.01198075 0.00216759 0.00015438 0.00010209 -0.00000692
169 1 22.262213 33.582778 2.599531 0.03773467 0.01083143 0.06867017 0.00013533 0.00009221 -0.00009630
170 1 5.367933 22.417959 34.366196 0.01548527 0.01317638 0.00868864 -0.02673539 -0.13596821 0.08690498
171 1 26.107432 34.965189 12.004821 0.05006344 -0.03625240 0.00826412 9.77311941 12.56238547 20.17102962
172 1 34.405069 25.929813 34.374781 -0.02014827 0.06324031 0.00093804 0.00001226 0.00001163 0.00005780
173 1 33.828971 20.156406 26.295229 0.01959784 0.03449815 -0.03528602 -0.00011543 0.00008856 0.00014461
174 1 28.849160 36.812331 4.569706 -0.00643182 0.03832786 0.01767320 0.00007013 -0.00011671 0.00006207
175 1 30.441405 6.253852 3.900843 -0.00049216 0.01186426 0.02389277 -71.16556569 -23.41416445 73.36473646
176 1 17.914358 23.667716 34.482338 -0.01199194 0.04343104 0.05349979 0.00012830 0.00006566 -0.00007230
177 1 27.890971 2.817605 3.036589 -0.02955797 0.00684337 0.04075981 -0.00073556 -0.00067598 -0.00020064
178 1 23.614449 18.483016 9.232632 -0.02338835 -0.01983636 -0.03742768 6968287.00996647 -108922816.73026197 10379216.51261745
179 1 4.014050 27.457331 34.952770 -0.00173519 0.02853910 -0.00941358 0.00008790 0.00010856 -0.00002331
180 1 10.039744 25.038341 35.891690 0.01819953 0.04314371 0.01328067 210.29213774 -822.17215756 -1997.85050005
181 1 5.571029 2.689602 26.173390 -0.00110962 -0.01466858 0.00043668 -0.00023801 -0.00036702 0.00031083
182 1 4.636066 20.586244 26.010535 -0.03879569 -0.01177742 -0.00189549 0.00021532 -0.00040584 0.00037620
183 1 7.767710 6.055057 5.373452 0.01825930 -0.00466227 0.00274137 0.00012022 0.00001611 -0.00003358
184 1 9.433812 24.445278 29.148283 0.00716978 0.05955469 -0.01014006 -0.00063195 0.00154718 -0.00112783
185 1 13.699296 11.416066 2.292162 -0.01130343 -0.00522772 -0.03604835 -0.00013372 0.00003675 0.00001256
186 1 23.544479 31.909444 37.321921 0.00791099 -0.01649331 -0.02891313 0.00010595 -0.00001187 -0.00002128
187 1 1.623580 33.036736 34.568442 0.01820283 0.02636163 -0.04897235 0.00003622 -0.00013859 -0.00008558
188 1 29.919823 7.439834 16.232663 -0.01059989 -0.02570539 -0.03346859 -0.00002324 0.00002580 -0.00008807
189 1 1.428848 21.936858 32.748440 0.05238546 0.00977371 -0.01711795 -0.00049713 0.00030138 -0.00071341
190 1 1.207896 5.726081 20.022588 0.05024318 0.05170865 0.03523844 0.00012680 -0.00087568 0.00074727
191 1 15.005421 21.821944 23.846380 0.00311230 0.01560785 0.00598635 -18.28434937 -6.85373995 -67.70032451
192 1 3.042430 11.307729 14.667024 0.01952169 -0.00410192 0.01735287 0.00079200 0.00073907 -0.00045884
193 1 10.705682 11.418250 10.412455 -0.01292459 -0.05783867 0.03474375 0.00001453 0.00005413 -0.00004555
194 1 24.154830 25.210965 25.529862 0.03274738 -0.01740836 -0.03006222 0.00010241 -0.00001518 -0.00017611
195 1 14.770430 37.032372 32.336859 -0.00703022 -0.07169498 0.00823038 37.78082685 -36.59149321 -71.87963869
196 1 34.649030 22.516989 29.869188 -0.02489192 0.00733456 0.00577879 -0.00015183 0.00005629 -0.00002984
197 1 11.486309 37.278672 21.974961 -0.04126331 -0.02641957 -0.00447776 0.00003446 -0.00001598 0.00005206
198 1 3.392750 36.294892 4.034334 0.00683716 0.02603770 0.00847320 0.00012583 0.00003339 -0.00013984
199 1 18.975116 7.891400 3.990446 -0.02391263 0.03842853 -0.00685744 -13.13565647 4.81582467 8.75068314
200 1 1.515787 29.416484 3.578647 -0.07053469 -0.00874532 0.02966559 -926.91181066 -10837.35683231 20396.56234692
201 1 3.707754 24.719707 15.435133 -0.00024322 0.01321427 0.00487093 0.00023512 0.00028273 -0.00048447
202 1 35.753132 19.683501 0.276947 -0.00032699 -0.00070594 0.04195673 0.00012862 0.00001070 -0.00000798
203 1 11.333901 5.793123 5.082231 -0.00530961 0.03320264 -0.04648228 0.00008128 -0.00001653 0.00020988
204 1 1.513830 15.007947 0.172421 0.03840615 -0.04570811 0.05264301 -0.00021003 -0.00003709 0.00001085
205 1 21.091378 32.459115 34.984271 -0.04676628 0.00103431 0.04915821 -0.00003574 0.00008099 -0.00021556
206 1 25.871715 34.007458 20.994834 0.02606594 0.01221297 -0.02101917 -2856.79070247 348.55570991 1393.19770549
207 1 3.089481 32.340107 20.786242 0.01824709 -0.03683040 0.01353477 0.00084342 0.00244381 0.00081614
208 1 21.904462 13.286511 8.114891 0.03400755 -0.02496018 -0.02288897 -1089.45664273 7475.76889926 -1226.47657639
209 1 23.337218 31.156913 7.371072 0.01566492 -0.04436779 0.04347776 -5657.82008195 -16458.80812179 9801.62064311
210 1 28.097132 9.243533 21.485369 -0.03910150 -0.03204076 -0.01370923 0.00004322 0.00020009 -0.00012664
211 1 22.589530 31.806795 32.974931 -0.00575366 -0.01852605 -0.03298577 0.00004858 0.00015182 -0.00017683
212 1 9.420013 5.198030 19.457339 0.02015131 -0.00100732 -0.01019004 0.00012345 0.00002195 0.00002472
213 1 18.892552 3.186260 15.834594 -0.00559011 -0.00573811 -0.02126718 0.00007385 -0.00002337 -0.00020672
214 1 13.700058 23.436166 22.860855 -0.02619924 0.00153082 0.01043789 0.41933357 -0.51602753 0.20527835
215 1 17.207374 6.307778 8.720439 -0.00443676 -0.08826511 -0.04704476 -0.00023254 -0.00006283 0.00029732
216 1 14.378519 17.853004 21.469957 -0.02197596 0.00496552 0.03906634 -291.48422815 1649.40984697 1731.27081251
217 1 18.933352 6.632434 8.383834 -0.00063755 -0.01573567 0.03891236 -1.86491524 -0.23366584 0.15350373
218 1 26.021928 29.195809 30.481914 0.02076416 0.03360243 0.02927314 0.00015243 0.00010770 0.00002368
219 1 12.279516 18.286637 21.289197 -0.01435057 -0.03678893 -0.01773459 1.38725650 -0.28759301 0.11932729
220 1 20.085329 31.507918 15.916720 0.02017677 -0.01552102 0.01866263 0.00016529 0.00015769 0.00019590
221 1 12.147116 20.796348 1.252702 0.08703973 0.03837948 0.02897462 0.00018346 -0.00012346 0.00007894
222 1 20.661988 32.335343 15.516002 0.01015912 -0.01470996 -0.00085846 -0.00025512 0.00006977 -0.00001131
223 1 35.588951 14.055964 22.510014 -0.00559609 -0.02420378 0.02842279 -6298.80254213 -4064.34496344 4625.37035238
224 1 13.303669 20.436573 31.068300 -0.00001241 0.00255366 0.02710156 -0.01462754 0.00854596 0.00276256
225 1 37.528380 2.631594 11.012925 -0.02852484 0.00252855 0.00696562 -0.10968635 0.00722499 -0.04295135
226 1 10.996459 23.712501 22.913006 0.04057507 -0.04022878 0.03402930 -0.00043530 0.00054512 -0.00012870
227 1 20.094621 20.645189 31.595023 0.05706710 0.04625641 0.01806143 169993.97303400 82891.71073901 110712.30354825
228 1 2.032763 12.265562 16.109835 0.05140194 0.01349139 0.03843680 0.00025390 0.00098908 -0.00038832
229 1 33.370408 17.636862 18.686215 -0.02451226 -0.01692603 -0.01949441 -0.00029628 0.00002367 -0.00024316
230 1 25.166516 27.817827 33.914804 0.00809285 -0.03585042 -0.03048958 -0.00012047 0.00003205 -0.00000294
231 1 12.153572 37.173952 21.967473 0.02346792 -0.06058050 0.00974985 1840.67768282 133.75503315 1986.43957405
232 1 11.847082 29.765303 24.719073 -0.01511722 0.01746487 0.01440041 189535.96511824 401919.62314552 -525089.95776331
233 1 6.694457 27.683848 0.391750 -0.04548449 0.01739622 0.02493084 -0.00044239 0.00032996 0.00029875
234 1 32.706707 11.713756 29.627592 -0.04051399 0.03034270 -0.00797436 -0.00012968 -0.00012125 0.00008335
235 1 28.255240 13.851581 23.631331 -0.02342840 -0.03498475 0.01715016 -0.00008976 -0.00018710 0.00001176
236 1 24.096773 1.460847 22.330242 -0.06267305 -0.02004495 0.04592484 -0.00006643 0.00010838 0.00004919
237 1 21.429993 13.224798 35.029772 0.01891943 0.00821608 -0.06252944 -0.00008990 0.00016571 0.00000339
238 1 29.635899 20.882437 1.143716 0.02026014 0.00345371 0.01782936 0.00020644 0.00016348 0.00012041
239 1 26.367741 7.843286 29.277097 -0.05411746 -0.02191007 -0.01258414 0.00007915 -0.00006099 -0.00002156
240 1 6.070018 7.961497 32.053782 -0.06505735 -0.01311572 0.00826376 0.00004164 -0.00001897 -0.00011020
241 1 17.157232 17.640144 34.684850 0.03377872 0.02198787 0.05906204 -0.00006172 -0.00040624 0.00026512
242 1 19.088662 19.967365 13.685807 0.00277102 -0.02356034 0.02902936 -0.00029932 -0.00020336 -0.00011541
243 1 23.304825 22.792528 13.167785 -0.00240760 -0.03403966 -0.04181172 0.33878574 0.55193929 -1.84037746
244 1 15.294802 23.925961 25.323694 0.00608166 0.03040298 -0.03757927 -0.01092623 -0.07942108 -0.05498600
245 1 23.195126 19.899478 17.094470 -0.03909740 -0.03343518 -0.00992457 -0.00012608 -0.00028156 0.00021536
246 1 7.034900 0.191852 35.532575 -0.00900852 -0.04383534 -0.01286006 -0.00000762 0.00011105 -0.00009321
247 1 4.692632 27.903073 3.590042 0.02492660 -0.04536846 0.00094143 0.00227189 -0.00114077 0.00012505
248 1 26.636962 20.531009 23.087342 -0.05396797 -0.00993438 0.01549824 0.00001838 0.00012476 0.00008547
249 1 29.765321 5.693051 32.125857 0.04191299 -0.00243291 0.04192107 -0.00006366 0.00004241 -0.00010946
250 1 1.390103 14.486183 1.057378 -0.00806755 -0.04399396 -0.02536804 -0.00008658 -0.00009892 0.00005787
251 1 2.861186 33.025368 2.597323 -0.02646925 -0.03379758 0.03548836 0.00060533 0.00168538 -0.00047452
252 1 18.477697 26.313742 8.712217 -0.02135655 -0.02866145 -0.01703653 -0.00003383 0.00003624 -0.00003900
253 1 23.924162 26.573901 26.877334 0.03341113 -0.00008924 0.02872833 0.00015886 0.00000987 -0.00000391
254 1 35.488450 31.073765 27.654045 -0.00718061 0.03583027 0.05454262 -0.00013459 0.00004255 -0.00013176
255 1 20.111987 35.823996 29.424507 0.03858947 0.00622474 0.01807756 0.00001534 -0.00016911 -0.00011253
256 1 7.309787 9.216955 7.901989 -0.00931641 -0.07021664 0.01292321 0.00003707 -0.00017978 -0.00007805
257 1 11.334233 6.849770 14.671551 -0.01243337 0.00195327 -0.01346881 -840.15424063 2339.29784257 -2336.17066646
258 1 15.775653 27.750679 16.866223 0.03292502 -0.03624441 -0.01592904 0.00010544 -0.00003741 0.00009396
259 1 4.280488 14.424095 17.286728 -0.02667072 0.00902136 0.04823399 -0.00009725 -0.00006775 -0.00013714
260 1 2.158784 0.592071 28.500993 -0.02591449 -0.05193990 0.00279940 0.00001226 -0.00009776 -0.00004205
261 1 35.715456 20.789910 16.031238 0.05257324 0.02339826 -0.00344372 -0.00029033 0.00005607 -0.00028832
262 1 24.639239 13.316213 21.265195 0.00584565 0.01990210 0.00716568 -0.00003783 0.00012211 -0.00008801
263 1 25.467417 26.804150 29.954431 -0.00372468 -0.03150820 0.00750450 0.00013143 0.00015586 0.00008371
264 1 9.376135 28.046117 35.233336 0.03537543 0.03141046 -0.00334911 0.00001727 0.00011322 -0.00000860
265 1 34.745071 12.257532 10.655277 -0.03238977 0.02346386 0.04204364 -0.00005464 0.00010243 -0.00001730
266 1 28.363648 5.947672 28.534191 -0.00406412 0.01128304 0.00484393 -0.00008363 0.00005941 0.00002616
267 1 30.123981 27.885328 25.070840 0.06352376 -0.00931406 -0.01798591 -6255.33057411 -71.23113085 -4011.12099359
268 1 16.201199 34.378120 22.238075 -0.02420901 0.03571430 0.00271577 0.00024381 -0.00024129 -0.00020337
269 1 11.775896 25.513362 30.261437 -0.02041106 0.02359405 -0.03266277 583.70746782 135.85516350 -1084.08904131
270 1 35.649243 30.800817 19.273625 -0.00112248 -0.00916857 0.02300522 -0.00163196 0.00076629 -0.00042670
271 1 33.658935 35.648227 21.052974 -0.00711538 -0.00087552 0.06681246 0.00014005 -0.00001840 0.00015065
272 1 26.545943 23.521674 14.179906 -0.04348303 -0.10736482 0.08653194 0.00238100 0.00059843 0.00068254
273 1 27.033840 21.220604 12.826783 0.00222723 0.00298091 0.04840036 0.00164160 -0.00053182 0.00015408
274 1 23.505483 9.567924 3.370965 0.03035533 -0.00247860 0.08084634 -0.00076838 -0.00068112 0.00110060
275 1 16.161508 13.719400 8.197721 -0.02791184 0.03206544 0.00246650 -0.00024492 0.00007450 -0.00012618
276 1 32.737363 33.893607 10.755252 0.00396233 0.00301141 -0.01852524 0.00011176 -0.00014375 0.00001508
277 1 7.637472 1.309390 29.313461 -0.00311821 -0.01303763 0.05688098 -0.00004619 0.00008666 0.00012032
278 1 20.301957 16.927230 35.238828 0.00445740 0.01423427 0.02117588 -0.00006495 -0.00014512 0.00019229
279 1 26.669509 2.866880 5.698123 0.03319141 0.05220903 0.06842573 -0.00027823 -0.00021937 0.00017088
280 1 17.688772 13.621047 17.269406 0.00325934 0.02020417 0.00908407 -0.00004145 -0.00008152 -0.00006361
281 1 10.872607 33.718389 2.175171 0.03347155 -0.01896578 -0.01369341 0.00013316 0.00007789 -0.00003455
282 1 22.902479 3.908085 27.449480 0.00471151 -0.02863621 -0.02597960 0.00003891 -0.00012886 0.00004561
283 1 9.860886 23.256495 23.861896 0.00028661 -0.01937438 -0.00057320 -0.36364857 0.08893884 -0.18713897
284 1 3.235564 19.770331 11.957152 -0.00298193 0.02602661 0.05855539 -6658.60721510 -13616.93103594 17095.75648428