ITEM: TIMESTEP
0
ITEM: NUMBER OF ATOMS
2875
ITEM: BOX BOUNDS pp pp pp
0.0 34.977361
0.0 34.977361
0.0 34.977361
ITEM: ATOMS id type x y z vx vy vz fx fy fz
1 1 11.446740 15.967192 32.977880 -0.03078399 0.01942680 -0.01475656 -0.00015935 -0.00009388 0.00000640
2 1 28.639849 34.575497 30.325905 0.00730460 0.02287490 -0.00054424 -0.00002788 0.00006281 0.00004346
3 1 21.206513 13.904942 16.620966 -0.04179100 0.02845569 0.03017072 -0.00006485 0.00013557 0.00007314
4 1 26.880262 3.311028 9.772311 0.04818177 0.06160226 0.02515783 0.00020426 0.00008535 0.00005240
5 1 16.451783 0.391181 34.752827 -0.02491209 0.02111189 -0.04857213 0.00013245 -0.00013741 -0.00002715
6 1 15.954269 18.457102 21.680318 0.03476820 0.00048256 -0.03271409 9921.42601990 -11422.40740165 5307.85255652
7 1 19.788695 25.477058 34.541775 -0.03185263 0.02329166 -0.00564483 0.00004688 -0.00016380 -0.00012197
8 1 24.107426 25.314315 21.828853 -0.03250460 0.04695729 0.00827632 0.00007927 0.00020626 0.00006324
9 1 6.006815 18.098179 18.665491 0.01686587 0.03491880 0.05752885 -0.00003205 0.00002144 0.00011577
10 1 32.632942 8.390585 7.180526 0.00294476 -0.00498097 0.00182887 -0.00008020 0.00003808 0.00002982
11 1 16.557056 18.026404 9.431063 0.00373308 0.00242650 0.05846873 -0.00011035 0.00013511 0.00004349
12 1 0.967837 26.537424 27.770089 0.03448167 -0.00937401 0.00480889 0.00003145 -0.00005753 -0.00010583
13 1 27.259252 32.737518 21.285836 -0.03354425 0.04218155 0.06861365 -0.00017585 0.00016179 -0.00002130
14 1 10.518443 29.935727 20.937941 0.07165225 0.00162341 0.04024412 -602791.85102959 -829814.44712525 397716.86015822
15 1 24.006281 20.473709 0.463690 -0.00462343 0.02843715 0.00012606 -0.00003690 -0.00003221 0.00010535
16 1 30.264822 23.672773 9.797234 -0.03335004 0.05072257 -0.02119994 -0.00008533 -0.00006067 0.00006128
17 1 20.399017 21.538342 20.457563 0.00793343 0.04474854 0.01031915 0.00013767 0.00003046 0.00004767
18 1 14.599969 20.384770 20.092132 -0.01005179 -0.06669078 -0.02073562 0.00918888 -0.01297232 0.01076518
19 1 22.576020 19.660797 6.145385 0.04487025 0.02294229 0.05192941 -0.00016291 -0.00010309 -0.00001926
20 1 0.446607 12.311336 10.749686 0.00695401 -0.05257826 0.03729276 -125.06207240 -153.02767775 -98.07884763
21 1 30.680357 18.671674 30.544179 -0.02621375 -0.02539979 -0.01522445 -0.00015391 -0.00010836 0.00007419
22 1 25.785465 2.478514 11.823399 0.04630823 -0.01244329 -0.04134389 -0.00004661 -0.00017029 -0.00002509
23 1 30.012957 23.358552 34.353072 0.02396916 -0.03805113 0.03017342 -0.00034221 -0.00013957 -0.00006776
24 1 17.414890 17.209438 5.732758 0.01598320 -0.02034287 -0.02433420 0.00002647 -0.00020072 -0.00002016
25 1 1.674825 30.244621 11.913984 0.02673969 0.00494991 0.01982892 -0.00024214 -0.00014091 0.00008234
26 1 2.732896 19.245168 5.836037 0.02744287 0.01029034 -0.06462167 0.00015772 -0.00001420 0.00003351
27 1 33.436353 34.328988 4.710310 0.02921831 0.02495345 0.00548549 0.00002005 0.00012021 -0.00002474
28 1 33.991210 1.482485 32.950211 0.01606874 0.00224958 0.00992084 -0.00000543 -0.00000500 -0.00003998
29 1 29.261531 4.739167 0.666795 0.02130219 0.03276075 0.02900277 0.00005021 -0.00003613 -0.00000537
30 1 12.720136 15.510097 24.618420 0.01535420 0.02086757 -0.02345400 -0.00025699 -0.00010638 0.00022334
31 1 12.524549 2.207866 24.659710 -0.02216677 0.04251805 0.06150017 0.00016483 -0.00013535 0.00004986
32 1 3.908884 24.952908 29.712811 0.00711975 -0.06225781 -0.03892434 -0.00014712 0.00002470 -0.00005001
33 1 8.207363 25.996640 34.229283 -0.00187728 -0.07075561 0.00849872 0.00008309 -0.00003402 -0.00002667
34 1 9.722105 18.076570 19.099794 -0.01648809 -0.02367317 0.01141610 0.00000943 -0.00008977 0.00003212
35 1 31.086481 16.237042 11.581974 -0.02036107 0.00439175 0.00323714 -0.00001800 -0.00001698 -0.00000295
36 1 0.624470 28.675958 17.363262 -0.01851864 0.01799899 0.04524728 503.36287997 4245.30361860 -798.68805181
37 1 13.977302 1.985942 28.917911 -0.02908133 -0.01580507 -0.04874913 -2138.87525573 2011.70114016 2790.28888120
38 1 23.597176 21.092868 21.844241 -0.01406970 -0.03560381 -0.02546255 -0.00002011 0.00011165 -0.00000544
39 1 32.429160 2.955430 24.801183 0.01032452 -0.02798994 0.02784093 0.00014422 -0.00001896 0.00009327
40 1 7.753840 12.289315 3.747055 0.00283412 0.04112207 -0.01658400 0.00008488 0.00001127 -0.00018480
41 1 29.906859 25.570560 18.821610 -0.03401249 -0.02491118 0.03447288 -0.00025073 -0.00017881 0.00011758
42 1 30.269994 29.600839 20.290754 -0.05120060 -0.02165508 -0.06688893 0.00000568 0.00014176 0.00022247
43 1 27.945609 24.704937 9.324425 -0.01278094 0.00096635 -0.00806742 0.00007596 -0.00000152 -0.00015448
44 1 15.238731 16.052695 30.330963 -0.01765044 0.00084964 -0.01337155 -220.04979077 42.61018285 -19.48976833
45 1 8.633589 27.841941 22.372484 -0.03015981 0.00237148 0.01582239 -0.00026680 -0.00025453 0.00018573
46 1 29.799312 26.061499 33.393288 0.00582314 -0.01393205 0.01962873 -0.00005351 0.00017496 0.00001776
47 1 4.759388 27.406604 30.178818 0.06690794 0.03351065 0.00090425 -0.00001092 -0.00005914 -0.00012129
48 1 13.454280 23.101176 34.657168 0.01127932 0.02440386 -0.02419021 22.20840288 260.66021839 -367.32601461
49 1 19.023822 30.345157 26.470216 -0.04548943 0.01470021 -0.00657372 331.09113674 468.46732077 -295.21115546
50 1 0.737991 8.923699 21.936434 0.01258098 -0.01981034 0.00948533 0.00002140 -0.00003542 -0.00004179
51 1 34.430333 6.665358 21.940000 -0.03857353 -0.01176291 -0.00451532 -0.00005029 -0.00001754 0.00009844
52 1 32.768718 25.968402 5.312204 0.01167687 0.01789870 0.05547891 0.00001156 -0.00008499 0.00009535
53 1 16.119299 31.174970 6.055117 -0.03089384 0.00975172 -0.02302470 0.00005225 -0.00000791 0.00006997
54 1 34.219203 34.795226 3.850745 -0.02290711 -0.04668639 0.05322202 -0.00004564 0.00016710 0.00009425
55 1 29.453874 5.510252 9.752163 -0.02865059 -0.01724282 -0.01995781 -0.00001200 0.00008451 0.00016425
56 1 17.139667 21.790296 21.439621 -0.04719023 0.03519928 0.00579614 0.00083746 0.00230901 -0.00018853
57 1 19.037186 2.503010 14.997580 0.02437322 -0.03636163 0.01608889 -0.00016404 0.00012413 -0.00006317
58 1 31.003082 13.368911 32.880809 0.00294844 -0.03376370 0.00526023 -0.00008086 -0.00013522 0.00012354
59 1 8.902269 33.599301 5.701556 -0.03018554 -0.05438111 -0.02839694 -0.00005793 0.00023212 -0.00004734
60 1 15.806404 29.207029 17.617352 0.02299007 0.00732197 -0.04550043 0.00011187 0.00021323 -0.00016695
61 1 30.763304 12.100060 17.347367 -0.00454365 0.03885091 0.00517483 0.00011917 -0.00012383 0.00003092
62 1 31.356230 32.782583 21.757612 0.06193492 -0.03214330 -0.01077408 -0.00000295 -0.00002222 -0.00011419
63 1 17.858741 31.585171 7.783108 -0.01163271 -0.01385820 -0.00589616 8.60712057 -2.97086586 11.92938595
64 1 0.475501 16.896848 15.604977 0.02339204 -0.00828510 0.05304335 0.00006568 0.00007619 0.00004111
65 1 5.215558 19.091923 6.460404 0.00888376 -0.04053300 0.00774725 -2.04846623 -2.03218708 -2.40193307
66 1 24.588657 14.144751 26.895468 -0.01022032 0.01417761 -0.01947276 -0.00005737 -0.00007764 -0.00003972
67 1 13.849306 7.748576 18.906923 -0.00881886 -0.02654504 0.00723511 -0.00024420 -0.00015085 -0.00016155
68 1 30.965902 17.606933 26.529411 0.00645959 -0.07697705 -0.00192788 0.00009539 -0.00004282 0.00016502
69 1 19.306817 19.416050 22.598210 -0.00762315 -0.02369423 -0.03231143 -1368813.98365806 -760767.72609217 4895857.38893757
70 1 24.825807 28.920050 29.063067 0.03886970 0.00575275 -0.01499644 0.00006856 -0.00008003 0.00014706
71 1 1.987699 15.335965 19.254531 -0.01573674 0.01102155 0.02193619 0.00009692 -0.00000501 -0.00014149
72 1 8.587641 26.240450 26.390890 0.00427729 0.00650117 -0.05435056 -0.00012207 -0.00004816 -0.00006285
73 1 30.911039 5.069903 26.504356 -0.04409810 0.02337987 -0.01491709 26.58195391 -217.69299936 193.79233175
74 1 8.520188 3.104906 1.416076 -0.04828530 -0.03736116 -0.03128145 1040.70984963 441.96006200 -1856.08749751
75 1 34.261991 34.468380 11.053327 -0.00412460 0.02475090 0.02419335 0.00010388 0.00017006 0.00006179
76 1 20.816387 31.229129 11.878996 0.04515025 0.03697347 0.04392467 0.00024127 0.00019853 0.00024310
77 1 23.815588 24.604281 17.447146 -0.02599716 0.00870378 -0.02765932 0.00016505 0.00006907 0.00013038
78 1 30.919450 0.030146 14.089178 -0.00638553 -0.02159389 0.04210031 -2104.38404950 -1963.26677931 1170.90336662
79 1 19.879253 23.202951 33.317796 0.02113305 0.02901808 -0.04146627 0.00003275 -0.00001862 0.00012308
80 1 23.121753 25.112391 17.486113 0.00535860 0.01628874 -0.00628113 -0.00000616 -0.00001009 0.00000889
81 1 20.535881 4.241371 16.257207 -0.00197121 -0.02430333 -0.01443070 0.00003234 -0.00004026 -0.00011093
82 1 19.493914 0.141175 20.410903 -0.05743869 0.03343168 -0.03757358 0.00003820 -0.00010460 0.00001497
83 1 13.504506 3.461255 9.829320 0.02045906 0.00645943 0.00548567 0.00013082 0.00010585 0.00013337
84 1 10.208826 5.297631 18.878398 0.02504780 -0.03971568 0.03527584 -0.00008844 0.00006457 -0.00002015
85 1 10.040956 5.503315 31.008649 -0.03580926 -0.02751292 0.04241497 -0.00019257 -0.00000165 0.00013591
86 1 9.492996 9.994787 6.125976 -0.00456405 0.01577568 -0.01651116 -0.00003354 0.00004721 0.00006912
87 1 11.500748 2.985229 13.753993 -0.04605350 -0.02056432 0.03438407 0.00000712 0.00016757 -0.00001587
88 1 33.740559 30.290195 10.857775 0.03422506 -0.00819497 -0.04211400 -0.00006614 -0.00010416 0.00008843
89 1 15.503030 31.654854 10.584899 0.01186424 -0.00641201 0.03673609 -0.00143330 0.00008897 0.00174924
90 1 22.019650 9.031147 32.460557 -0.01295916 -0.05983674 0.01195114 0.00002006 -0.00000559 0.00003368
91 1 30.334042 29.446622 34.695141 0.06549374 0.02836876 -0.02647767 -1.65359860 24.00271524 -19.92175101
92 1 19.344358 2.190244 7.857981 -0.00856729 -0.03738211 0.01845488 -542442.39719955 -194724.06597717 -1853649.19894672
93 1 19.622892 6.048393 14.681342 -0.01576630 -0.02276277 0.01122934 0.00015722 0.00003858 -0.00008206
94 1 28.657542 16.934700 17.032797 0.00927738 0.08034775 0.00219244 0.00006166 -0.00009261 0.00008546
95 1 20.626043 28.199579 15.687592 -0.02196224 -0.02434790 -0.05817160 -0.00019449 0.00002174 -0.00002814
96 1 33.335581 34.792954 0.147721 0.01354286 0.04540560 0.00174009 0.00010451 0.00011772 0.00009763
97 1 20.998508 33.901376 8.719369 0.01094502 0.00193830 -0.02407610 0.00204041 -0.00098343 0.00097469
98 1 32.490517 25.393055 22.344746 0.01905167 0.03927508 -0.03661058 -0.00015832 0.00012678 -0.00004451
99 1 33.443638 12.452226 17.684367 -0.03527402 -0.02574815 -0.01184066 0.00004162 0.00007962 0.00006049
100 1 8.678880 29.402813 28.927298 -0.00564519 0.01613137 0.03951747 0.00006635 0.00009206 0.00007657
101 1 2.731116 25.196955 16.907273 0.05009918 -0.02731125 -0.03156115 0.00053250 -0.00131750 -0.00022213
102 1 18.424235 4.685455 9.620984 -0.00840516 -0.02507167 -0.00055256 -0.00017258 0.00060849 0.00046769
103 1 20.697914 8.983872 25.933228 -0.01820030 -0.01832781 0.02805648 -0.00007536 -0.00003062 0.00006153
104 1 7.079736 12.723607 29.591166 -0.02123213 0.00643019 -0.07133595 -0.00022251 0.00012566 0.00008383
105 1 4.694314 2.425827 7.884731 0.00190387 -0.02883988 -0.01849035 -0.00010421 0.00008009 0.00001511
106 1 28.507143 30.271014 12.974500 -0.02117067 -0.02189517 -0.00744225 -0.00023620 -0.00028150 0.00009687
107 1 14.382143 21.014703 23.188908 0.04898278 0.02398758 -0.01742317 -0.00139376 0.00190496 0.00088613
108 1 5.171682 34.391135 10.813116 0.03380274 -0.00578932 -0.00253314 -0.00001374 0.00001221 0.00000299
109 1 1.096320 9.356852 24.500359 0.00187448 0.02398093 0.01235895 -0.00009382 -0.00016951 -0.00000209
110 1 23.581752 14.245036 33.066162 0.02138725 -0.04293078 -0.02213855 0.00001155 -0.00002344 -0.00009730
111 1 32.534254 9.170374 2.450423 0.01283762 0.03692871 -0.01933315 0.00003269 -0.00007441 0.00005605
112 1 2.756358 30.674716 33.898734 -0.04044961 -0.00460415 0.02122622 -0.00012377 -0.00020360 0.00009349
113 1 25.992011 21.923612 8.545656 -0.07351826 -0.00431066 0.00449105 0.00005872 0.00004413 -0.00021944
114 1 21.806981 16.738491 23.650690 -0.00021707 -0.00615084 0.00939557 -0.69114989 -1.01956835 -0.17481296
115 1 27.403654 22.660950 22.953976 0.01508179 -0.00098970 -0.00388473 14.62233145 9.60966539 -0.87886232
116 1 0.065170 8.174512 12.939814 0.00283508 0.01940516 0.02660576 0.00002858 -0.00048129 0.00032730
117 1 6.695558 16.281402 32.183129 0.03036014 0.00698400 -0.03669969 0.00011854 -0.00005716 0.00006795
118 1 31.899976 21.416340 24.548834 -0.03260651 -0.02304314 -0.00737552 -3.86402763 -0.93003890 -1.07043452
119 1 6.743804 26.694961 13.247410 -0.00706219 -0.02038861 -0.03641781 -0.00022418 0.00012799 0.00005918
120 1 27.696592 26.895830 7.868415 0.00865690 -0.01651477 0.01668674 -0.00003367 -0.00012192 0.00003340
121 1 4.900323 1.240047 12.529897 0.05439205 0.04052617 0.00179953 -0.00018853 0.00013606 -0.00006255
122 1 30.273927 9.799255 26.958644 -0.03387570 -0.00585489 -0.02895479 -0.00011285 0.00069140 0.00010332
123 1 29.818777 1.093916 25.038160 -0.03306618 0.01278932 0.00711851 82856.71752494 -22119.86790418 55138.46901491
124 1 20.102676 0.113520 5.874886 -0.01684499 -0.07799759 -0.00211118 -0.00132727 0.00553967 0.00437376
125 1 19.250825 18.946168 19.576335 0.06996282 -0.01704516 0.03183302 0.00145885 0.00070845 0.00130044
126 1 25.350296 17.407682 27.092229 -0.04819879 -0.01708422 0.01370694 0.00029370 -0.00000055 0.00016205
127 1 34.488735 24.838144 30.349223 -0.02262294 -0.01392321 -0.00446305 -0.00001737 -0.00013516 0.00006253
128 1 9.295638 17.455008 3.338385 0.03457613 0.05851270 0.01192533 0.00018476 -0.00015902 -0.00018919
129 1 9.576900 29.849514 31.239405 0.02549800 0.00102950 0.04781632 -0.00007760 -0.00013512 -0.00010666
130 1 20.814172 18.790478 17.569854 0.01815672 0.01107290 -0.02339942 0.00009803 -0.00007994 -0.00039120
131 1 14.665085 10.341035 4.767372 -0.01017676 -0.04764886 -0.03454843 -0.00014398 0.00005146 -0.00005825
132 1 12.388820 11.531940 26.886840 -0.00219172 0.01990858 -0.04688332 -0.00011270 -0.00015674 -0.00018162
133 1 26.056430 0.543403 22.248187 0.01030075 0.01334954 0.01796940 711196.69181243 6873121.54974383 -4890672.53104051
134 1 13.116897 21.101388 5.990599 -0.03546423 0.01959401 -0.03672997 -49.24867358 -323.10495979 -1214.01904585
135 1 34.062943 6.835643 28.693088 -0.06048418 0.04541177 -0.00883177 0.00112599 0.00041560 0.00067112
136 1 34.507257 5.748966 2.916345 -0.03379452 0.01719405 0.02184492 0.00005915 -0.00005439 0.00011259
137 1 32.204611 32.565630 26.080463 0.00318339 0.02163844 0.01738551 634.10483270 1955.59411897 838.08009245
138 1 15.371638 12.586582 33.767432 0.00944340 -0.00497221 -0.01583802 -0.00005267 -0.00045637 0.00049699
139 1 23.753074 24.049165 33.528587 0.00826854 -0.04758578 -0.06568322 -0.00008072 -0.00002124 -0.00002073
140 1 31.158898 30.257734 11.114935 -0.03162147 -0.00372142 -0.01168796 0.00008629 -0.00001768 -0.00008412
141 1 31.380501 23.343117 13.870742 0.02293494 -0.00621986 0.07809591 -0.00001869 -0.00025022 -0.00006894
142 1 14.463877 30.655158 21.920623 -0.01320241 -0.04240261 0.02605244 0.00115522 0.00021787 0.00025612
143 1 34.682735 9.842871 0.084418 0.00106097 -0.00725651 -0.00518708 0.00000899 -0.00004333 -0.00006770
144 1 30.910986 2.704304 4.640607 -0.04835180 -0.02208226 0.02274699 0.00007530 0.00010209 0.00006467
145 1 34.256054 17.089518 33.021690 0.01803786 0.00052137 -0.02488350 0.00003787 -0.00004198 -0.00018630
146 1 26.389255 34.551932 23.270616 0.01751242 0.04212223 0.03312082 -62.28263714 181.29711928 -191.32786616
147 1 29.016704 34.111261 6.653668 0.02157560 -0.01409904 -0.05151802 -0.00020199 -0.00008441 -0.00002098
148 1 34.094621 10.318671 22.602277 0.04078937 -0.00433018 0.00275456 -0.00017394 0.00014789 -0.00013425
149 1 5.391595 17.981249 14.306019 -0.00535516 -0.05181496 -0.01696090 -0.00004044 -0.00002196 -0.00003875
150 1 33.671050 0.610740 14.968912 0.01778912 -0.04204166 -0.02430320 -0.00793895 -0.00175842 -0.00266544
151 1 34.388146 0.628877 5.315729 0.00229287 -0.03713864 -0.04505929 0.00003714 -0.00006805 0.00004368
152 1 10.519897 17.763665 31.118086 0.03242752 0.01114141 0.00119556 -0.00044746 0.00013446 -0.00014257
153 1 15.493054 31.138097 6.160303 0.02152361 -0.02826003 -0.02234384 0.00984630 0.00209779 0.00677508
154 1 30.400238 25.835175 33.658292 -0.05021287 -0.01080640 -0.02347464 -0.00005994 -0.00186152 -0.00056074
155 1 16.648632 7.807782 19.279195 -0.03676285 -0.02092365 0.02755130 0.00010342 0.00013395 -0.00001872
156 1 26.175272 23.018180 30.598504 -0.00435795 -0.05792611 0.01213093 3.24663894 2.16771437 -1.13440794
157 1 23.665666 27.926408 33.346385 0.04673216 0.01258546 -0.06446553 -0.00020926 0.00009052 0.00009592
158 1 22.639100 18.853521 20.226968 -0.10473862 0.01023713 0.04190809 0.00146209 0.00042275 -0.00192805
159 1 27.161750 34.720503 28.217061 0.02392643 0.02364186 -0.00915524 -0.00072701 -0.00045178 0.00076695
160 1 29.208284 13.159985 14.226594 -0.01988190 -0.00610380 0.02005653 -0.00006014 -0.00000928 0.00005112
161 1 34.474225 4.111613 19.983938 -0.02925838 0.01362203 -0.06333933 0.00011912 -0.00000429 -0.00004564
162 1 23.881096 9.375173 27.364171 -0.01279142 -0.02449804 -0.05121561 -0.00008673 -0.00014517 -0.00005635
163 1 26.586683 14.043559 25.344702 -0.03543629 -0.04115310 -0.01353772 -0.58143409 0.28995288 -1.36911792
164 1 25.841749 25.323470 26.850795 -0.04001018 -0.02009609 -0.01175354 123017.74472465 -276870.88277446 4764.84547947
165 1 23.419108 5.105230 21.669434 0.07519555 0.02668023 -0.02959564 -0.00004638 0.00014740 -0.00011774
166 1 26.197137 8.864349 27.050838 0.02331786 -0.05567438 -0.04221041 -0.00015706 -0.00011721 0.00018002
167 1 17.237702 23.199157 10.160110 0.01056027 0.02822084 -0.02017818 786.78723838 -748.48770026 -1562.36700387
168 1 27.211936 0.764337 27.048701 -0.01442113 0.03723987 -0.01133070 -0.00175602 -0.00018250 0.00162831
169 1 30.908797 25.080892 26.072124 -0.01987431 -0.04175794 -0.08975345 0.00029313 0.00142782 0.00058333
170 1 12.122471 29.976779 16.899357 0.08189307 0.05953688 -0.03805177 0.00049820 -0.00020976 -0.00101003
171 1 25.311147 15.217370 22.929626 -0.00824328 -0.10335115 0.01650197 0.00461408 -0.00341861 0.00516025
172 1 6.074406 33.520758 22.119763 0.03294306 -0.04604441 0.00589974 -22631117.81332276 15688305.96546266 -26671683.73758894
173 1 8.799506 23.950284 6.829894 0.00806532 -0.00870056 0.00744587 -0.00028409 0.00011110 0.00019268
174 1 14.888941 23.727299 27.170403 -0.02099037 -0.01003955 0.02498163 0.00004647 0.00003944 -0.00021306
175 1 13.564321 33.603406 25.390327 0.05566890 0.02727743 0.03764692 -0.00006804 -0.00030156 -0.00021502
176 1 3.114712 5.954947 30.417460 -0.00298900 0.04696457 -0.01915619 -0.00010943 0.00003703 0.00001382
177 1 26.675819 26.602753 18.858098 -0.08188332 -0.03658453 -0.01348376 -0.00002921 0.00019481 -0.00021809
178 1 2.041082 22.403036 25.103936 -0.01778164 0.00982969 -0.03943814 -33032.16785213 32287.90352575 18702.81296107
179 1 17.790100 26.152882 7.181571 0.00637018 0.02078714 0.00395811 0.00023552 0.00065804 -0.00091550
180 1 7.389362 0.881030 22.396856 0.04051591 -0.00891053 0.09317771 -0.02465248 -0.04375994 -0.00521056
181 1 29.201770 25.434177 8.441844 -0.02727527 0.00537081 -0.03462161 -476804.18438965 222347.48412180 1075143.74369556
182 1 7.015037 23.137762 30.565070 0.00100859 -0.02634854 0.00363229 -0.00000662 -0.00002570 0.00004565
183 1 32.536575 22.319443 28.810853 -0.00230050 -0.00690830 0.02277656 616301.68145083 1439142.98591893 2320675.54222787
184 1 12.891270 17.113029 30.570277 0.02091324 -0.00180541 -0.00524240 0.09008561 -0.04050444 -0.00938869
185 1 29.147325 3.119850 2.744358 0.01462526 -0.01632399 0.00421119 -0.00005724 -0.00003456 0.00002334
186 1 30.369441 34.446027 2.574485 0.03806856 -0.02190557 -0.02010570 -0.00548563 -0.04200152 -0.03474356
187 1 2.148556 27.764429 13.739524 -0.02446837 -0.04177197 -0.01559973 0.00068515 -0.00026272 -0.00127016
188 1 15.522803 7.326908 19.416287 0.00354545 0.03371608 -0.00250797 -0.00003466 0.00008256 -0.00001528
189 1 26.852927 30.301574 4.300146 0.00320297 -0.04677937 0.00756750 -0.00017109 -0.00011762 0.00021165
190 1 28.241720 31.023228 20.498294 0.03044365 -0.01536766 -0.02403570 0.00016249 -0.00038983 -0.00026863
191 1 16.824678 18.434366 23.950409 0.01395946 0.00131624 -0.03999259 -0.08631187 0.00453394 -0.23897235
192 1 24.732612 8.675739 6.773632 0.01992509 -0.00572445 0.00423273 -0.00013004 -0.00006167 -0.00010164
193 1 5.993484 4.628329 19.536710 -0.04004171 0.02275333 0.03626734 -0.00002943 -0.00000109 0.00002333
194 1 33.768029 17.111157 29.270336 0.02207205 -0.01238607 -0.01657569 -0.00004058 -0.00021415 0.00001797
195 1 16.394560 5.622894 31.959827 0.03439126 -0.02567991 0.01190629 -22389.74806603 442223.35881888 -261639.11506004
196 1 33.690284 12.769415 31.308911 0.03792458 -0.00732338 0.00652044 -0.00001576 0.00000842 0.00010098
197 1 13.079006 23.858055 7.095362 0.03038503 -0.00606371 0.00507906 -0.00033537 -0.00620567 -0.00264313
198 1 11.055766 15.474033 21.522109 -0.00522707 0.03421571 -0.02538397 13221.84255831 -22379.96805366 -35152.15905070
199 1 11.743053 21.665223 7.600856 0.02324630 -0.01199783 0.00927665 0.69445600 -0.28499742 -0.81410946
200 1 6.059864 9.461215 25.733580 0.00117658 -0.04629300 -0.03206137 0.00013165 -0.00006205 -0.00008539
201 1 7.584230 31.802824 34.790751 -0.01793327 -0.02628610 -0.01889175 26191.78859764 1218.45072359 -3982.56564260
202 1 13.857619 27.911179 6.407334 0.00864294 -0.05883090 -0.02052141 -0.00017970 0.00017414 -0.00018294
203 1 31.409039 16.499645 17.468937 -0.05118660 0.07882587 0.03668409 -0.00015034 0.00011648 -0.00009331
204 1 22.248144 28.877799 30.187878 0.09255973 -0.00072618 0.03848064 -0.00000142 0.00004063 0.00015559
205 1 32.521209 15.724489 27.647091 -0.00675961 -0.02610005 0.05851620 -0.00001551 -0.00006053 -0.00004794
206 1 10.519647 18.278716 24.189553 -0.03724362 0.03602214 -0.03728215 -0.00027857 0.00121238 0.00134496
207 1 15.536247 29.990787 29.901091 0.01463777 -0.01955552 -0.01913867 -347.56694074 953.11139841 273.46534548
208 1 11.066826 29.171924 32.089662 0.02202948 0.00216299 0.01877482 -36.32327056 80.30268698 -38.80162492
209 1 6.504612 26.324557 9.120879 -0.00128627 -0.05076556 0.00126298 0.00012985 -0.00001404 0.00003575
210 1 1.967386 34.834300 5.893850 0.03232121 -0.02453245 -0.02832192 0.00012337 0.00000603 -0.00001855
211 1 32.764996 6.660011 24.058581 -0.01637204 0.00412497 -0.03865985 0.00144543 0.00128078 -0.00175646
212 1 27.748704 15.382127 21.011913 -0.00947234 -0.00064261 -0.01255330 0.00008797 0.00019447 -0.00068700
213 1 23.323405 11.329268 2.286075 0.01953648 0.02069392 -0.03777127 0.00003170 -0.00000215 -0.00001916
214 1 14.253311 11.874556 16.113071 0.06064224 0.04503481 -0.01309472 -0.00009585 -0.00001496 0.00002130
215 1 27.637238 22.895079 2.919463 -0.03770148 0.00155362 -0.01754173 0.00012499 0.00003759 0.00013792
216 1 34.114493 18.839784 22.418743 0.01921335 -0.00439644 0.01674878 0.00088670 -0.00125238 -0.00111782
217 1 24.170465 30.851172 24.522153 0.00691278 -0.00095598 0.03052165 0.00011437 -0.00001273 -0.00013991
218 1 19.569916 29.533637 9.456361 -0.01937088 0.03569007 -0.01746916 0.00012725 -0.00023501 0.00018841
219 1 33.296703 14.034121 18.034342 -0.01730358 0.04426013 -0.00878274 -0.00004185 -0.00008995 0.00013395
220 1 19.816257 26.946008 15.302344 -0.02580397 0.02483194 -0.02722193 0.00005287 0.00016101 0.00001239
221 1 24.911940 9.314854 24.800932 0.00959561 0.00489850 -0.03270094 -0.00012508 -0.00045580 -0.00004646
222 1 8.893086 16.592289 7.779483 -0.01811045 -0.00353675 0.02166290 0.00058237 -0.00036470 0.00009589
223 1 28.450120 11.013249 26.640783 -0.00562709 -0.00987327 -0.05138187 0.00089246 -0.00148250 0.00063167
224 1 18.431381 28.557784 3.901708 0.00361514 0.04816071 0.00131624 0.00004948 -0.00021791 -0.00036453
225 1 31.960719 1.049331 26.719681 -0.03187585 -0.00820639 0.00428546 -0.03324910 0.00179830 -0.02572374
226 1 6.087427 21.476304 10.101178 -0.03058240 -0.00924167 0.03388793 0.00018298 0.00045453 0.00079143
227 1 32.693624 2.506706 29.239051 -0.00767878 -0.00504222 -0.02747651 0.00081392 -0.00056842 0.00121979
228 1 3.162275 14.597566 28.788315 -0.02300348 0.04316368 0.00560402 -0.00020729 -0.00012731 0.00000765
229 1 8.283070 10.324517 32.976696 -0.02567195 0.01973624 -0.01528290 -0.00001878 0.00006460 0.00012364
230 1 22.120863 25.653739 34.611855 0.04316575 -0.00212318 0.01763279 0.00002509 0.00002146 0.00010760
231 1 5.481465 27.513975 4.294679 0.01254358 0.03157901 0.02370668 -0.00000926 0.00008246 -0.00000348
232 1 7.960412 0.285680 16.407974 0.02852080 -0.04826757 -0.06019416 0.00001427 0.00017056 -0.00013313
233 1 4.763903 7.652417 24.192143 0.01581782 -0.02219433 -0.02179267 0.00003636 0.00005188 -0.00003313
234 1 30.141800 16.822675 9.290298 -0.00902122 -0.00248618 -0.04478858 -0.00009819 -0.00005730 -0.00003323
235 1 26.788833 16.192138 17.827574 -0.00840542 -0.05261120 -0.03200735 0.00019290 -0.00000432 0.00012642
236 1 12.827278 7.576081 13.683114 0.01271938 -0.00772869 -0.00190546 -0.00013043 -0.00003737 -0.00002361
237 1 2.035119 28.833713 8.943004 0.00798459 0.01477528 -0.02161747 0.00013836 0.00005701 -0.00004652
238 1 4.799948 16.648721 34.608973 -0.03392068 -0.02780643 -0.04372337 -0.00005674 0.00009477 -0.00006952
239 1 7.276673 13.642158 28.769922 0.02388298 -0.00363977 0.03083436 0.00011107 0.00013836 0.00013733
240 1 31.435918 28.663525 21.917483 0.00624715 -0.04591618 0.02585579 -0.00007426 -0.00014121 -0.00006245
241 1 34.648041 5.020744 19.021520 0.01849628 0.02510705 -0.02264184 -0.00010083 0.00001919 -0.00013064
242 1 15.645073 28.736621 26.088872 0.00852999 0.02893458 0.04718108 48500463.01015014 -69436916.48614326 8987642.59054360
243 1 0.410997 15.731880 11.751148 0.07172915 0.04577195 -0.03073077 -0.00001865 0.00250820 0.00058080
244 1 23.969947 22.773372 16.177399 0.05359646 0.03137834 -0.05114311 -0.00002462 0.00004230 -0.00009545
245 1 13.439967 10.139927 17.992966 -0.04933571 0.01587697 -0.03373961 -1195.57895849 -20182.73818987 -2767.06781877
246 1 18.303953 4.309684 10.325418 -0.02126246 -0.02686954 -0.01410198 -0.00083412 0.00175970 0.00184992
247 1 17.639175 24.458844 18.369331 0.00373946 0.02942265 0.01633777 -0.00021484 -0.00002977 -0.00015672
248 1 27.239363 10.312287 26.139671 -0.02133182 -0.05202422 0.01321092 -6.15303488 -12.92962605 -18.27280856
249 1 29.747296 23.895905 31.846301 0.00452486 -0.02772877 -0.03126325 90711.34288495 30918.39433950 -77102.50408181
250 1 17.726587 10.286883 15.799212 -0.02783858 0.00802602 0.03618026 0.00038668 -0.00006570 -0.00022299
251 1 28.525910 13.631150 23.404616 0.03678843 -0.01839836 0.02409880 -0.02136297 0.00514196 0.02082287
252 1 11.954259 8.644666 22.288988 -0.03596990 -0.04270311 0.01386724 -0.00010972 -0.00022993 0.00049726
253 1 14.862074 7.192843 7.957408 -0.03295314 0.03014009 -0.01574440 0.00003961 -0.00012198 -0.00012265
254 1 15.628143 24.782561 8.075602 -0.01901753 -0.02247850 0.01964939 0.00122626 -0.00064097 0.00156485
255 1 11.315658 29.144883 9.600550 -0.04055154 -0.01845991 0.02928750 0.00015867 0.00008481 0.00015309
256 1 3.527297 5.442494 11.579306 0.04788989 0.08772824 0.00741874 0.00008773 -0.00017873 -0.00007469
257 1 17.911002 1.851814 8.508542 0.00203450 0.02866929 0.02892344 59.83079321 14.12695477 -27.15546535
258 1 16.664039 2.726764 10.430053 -0.00023728 0.01290206 -0.00419476 -0.00153552 0.00033839 0.00153732
259 1 33.601803 30.006011 18.923663 0.05816683 0.01032551 0.02968389 0.01135679 -0.00750757 -0.00893114
260 1 1.008151 28.235245 33.187127 0.00854127 -0.00141226 0.05089791 -0.00001280 0.00008737 -0.00003586
261 1 31.863587 28.763856 15.261875 -0.00300243 0.02381743 -0.01041715 3137.89397812 -4893.46289458 -348.07451779
262 1 13.620576 20.426157 4.578331 0.02886004 -0.01497475 0.02476409 -15.60321874 20.91760535 43.75044230
263 1 14.244508 22.305915 9.809148 -0.01859647 0.03190976 -0.01137891 414.67522808 438.06571105 220.68777346
264 1 5.542366 31.273570 15.143450 0.01539393 -0.02054121 0.01440950 -155.23516742 634.83364923 -414.30955681
265 1 23.299166 29.152298 10.561437 0.01882215 0.00982210 0.02215163 -84275.70061681 2524335.78501196 3964750.33476940
266 1 23.928036 8.700615 5.343567 -0.01001936 -0.03205211 -0.01657208 100114603.99401890 123203060.40473917 -98219290.07965657
267 1 2.792911 34.049140 1.163191 0.02237868 -0.03755036 0.01272932 -0.00023028 -0.00007280 0.00007452
268 1 32.772344 22.783090 8.540911 -0.01253057 0.01037092 0.00980243 0.00091432 -0.00047864 -0.00001593
269 1 16.206716 14.610454 33.902793 -0.02714104 -0.02734418 -0.02141589 0.00032713 -0.00073086 0.00154197
270 1 18.686564 27.983099 18.368954 -0.00536941 -0.01683712 -0.00314227 0.00010836 0.00008536 -0.00005614
271 1 13.345466 27.650484 0.797610 -0.01143735 0.02454055 0.03249591 0.00042554 0.00031471 0.00094429
272 1 9.694057 8.273779 21.386422 -0.01204334 0.00847501 -0.01651205 -0.00028024 -0.00016238 0.00028401
273 1 27.261994 1.493040 10.419531 0.03717416 0.03496081 0.02716015 -0.00018818 0.00005281 0.00002643
274 1 22.041767 1.916265 6.196164 -0.00568671 -0.01652746 0.02384021 0.00056758 0.00002703 -0.00029108
275 1 30.200090 22.580221 24.763131 -0.03109916 0.00980298 -0.02067588 1.95266930 -1.33595312 -0.24559273
276 1 5.201561 11.293485 31.020554 0.01759748 -0.03547379 0.05830819 0.00029336 0.00010324 0.00007852
277 1 22.694319 24.022453 21.693891 0.02034483 -0.00390722 -0.02913990 -0.00045780 0.00016852 -0.00010951
278 1 18.372767 20.555344 32.699707 -0.01067696 -0.01322733 0.03011271 0.00009556 -0.00000689 0.00000482
279 1 24.424162 3.194122 31.799488 0.01063189 -0.00507441 0.03567943 -0.00006286 -0.00000183 -0.00005524
280 1 10.726885 34.184119 11.996136 -0.00175014 0.02954609 -0.04988445 0.00000646 0.00008712 -0.00009674
281 1 6.484425 25.683093 21.877374 -0.02696941 0.03910437 0.03099019 25795.06639652 -15654.68279190 -8820.25055977
282 1 25.027315 10.894425 18.957364 0.00973344 0.02797524 0.00461708 -1813.56778341 -3634.01504148 -1456.14124042