ITEM: TIMESTEP
0
ITEM: NUMBER OF ATOMS
4980
ITEM: BOX BOUNDS pp pp pp
0.0 42.786896
0.0 42.786896
0.0 42.786896
ITEM: ATOMS id type x y z vx vy vz fx fy fz
1 1 29.431165 5.868858 26.830842 -0.00530343 -0.00525922 -0.01041663 0.00024247 -0.00001389 -0.00008039
2 1 0.734346 42.413379 20.287928 0.00012733 -0.04140081 0.02184422 -0.00005889 0.00004960 -0.00002496
3 1 19.023767 11.077621 4.041960 0.02428042 -0.00139676 -0.01200685 -0.00002242 0.00004561 0.00005614
4 1 26.714570 31.927744 33.520842 -0.03583127 -0.01469313 -0.02899144 0.00011235 0.00003880 -0.00001757
5 1 21.927101 0.715715 11.683168 0.01889316 0.02547958 -0.02847519 -0.00006213 -0.00006948 0.00006518
6 1 29.055359 32.669791 20.338201 0.02700233 -0.03569635 -0.01541172 0.00009416 0.00006854 0.00008999
7 1 37.984457 26.412881 23.987217 0.02927003 -0.03276516 -0.04422248 -0.00011455 0.00013985 0.00007095
8 1 16.149282 26.673376 2.507977 0.01330194 -0.01591022 0.02041197 0.00007064 -0.00002161 0.00008375
9 1 6.671575 11.459235 38.347426 -0.01681331 0.01420423 -0.01059257 0.00005517 -0.00014811 0.00022795
10 1 29.228670 42.240306 21.570785 0.05634696 -0.01294426 -0.05345450 -0.00019444 0.00002506 -0.00007272
11 1 33.319733 36.638861 36.880100 -0.02511216 0.01898543 -0.00041087 -1424.53855400 -170.58233132 -1407.65904908
12 1 32.895630 42.393509 14.586286 0.01934241 0.00362060 0.05188615 -0.00005838 0.00002201 0.00007263
13 1 30.238937 41.326837 30.396128 0.04833425 -0.04555270 -0.02872957 0.76629209 -2.87996184 4.40326504
14 1 1.269641 0.815410 15.931318 0.04655709 -0.04512209 0.00448950 -0.00005130 -0.00013271 -0.00004383
15 1 7.717944 39.671733 16.753541 0.01561318 0.02644174 -0.02399884 -0.00006360 -0.00013686 0.00003791
16 1 6.982482 25.794242 25.687421 -0.00691406 0.03091978 -0.03284130 11530.23829128 -42005.80376768 27317.08735559
17 1 21.936956 8.826897 5.005592 0.02542670 0.02139434 -0.03511023 0.00014267 0.00011239 -0.00012547
18 1 17.445780 11.556805 16.051200 0.02371560 0.02372753 -0.04361418 0.00001414 -0.00006756 0.00014803
19 1 41.411739 0.138205 42.555784 0.01251238 -0.04510789 0.02603470 -0.00011096 -0.00000291 0.00005881
20 1 39.642762 17.439926 12.582157 -0.06103458 -0.07352898 -0.07468238 0.00001256 0.00019853 0.00001917
21 1 16.082458 28.128120 34.799513 -0.01100043 -0.05043707 -0.00632426 0.00006616 -0.00008010 0.00003789
22 1 27.926460 38.262375 37.614898 0.03843737 0.00702528 0.02294095 -0.00024070 0.00000612 0.00007986
23 1 30.022404 41.225648 12.031297 -0.03038812 0.02197639 -0.00221231 -0.00007541 0.00008911 -0.00006818
24 1 21.395887 0.633399 14.615050 0.03185813 -0.01836024 -0.03964614 -0.00007211 -0.00001759 -0.00011685
25 1 35.805735 10.427587 31.317534 0.04841447 0.00577637 0.01336622 0.00011597 0.00002537 0.00010438
26 1 18.977798 7.226391 40.419810 0.02916113 0.01988501 -0.01333059 0.00016519 -0.00002293 -0.00006967
27 1 14.462349 15.315389 28.911395 -0.02197595 -0.01581476 -0.00820263 4450291.61024334 4243505.83008079 -7987862.37445745
28 1 7.113685 3.316572 8.456975 0.01910365 0.03550184 0.02102549 0.00016145 0.00008058 0.00011654
29 1 21.036459 30.056932 7.479771 -0.02870344 -0.00518849 -0.00503998 0.00003440 -0.00005364 0.00000411
30 1 10.705266 10.144630 27.303303 0.00546981 0.00629885 0.04406092 -0.00003123 -0.00001901 -0.00017827
31 1 37.066164 11.754259 7.328837 -0.07789337 -0.01523825 0.01037843 1436946.84907553 -2175119.31543724 3167185.73203347
32 1 7.255399 10.081182 15.420011 0.01482324 -0.02235623 0.03028398 -0.00004980 0.00010866 -0.00011163
33 1 9.196723 15.335154 16.666179 -0.01507443 0.04124861 -0.03676048 0.00006151 0.00015635 -0.00004983
34 1 15.474737 17.033137 7.540425 -0.03987464 0.02464653 0.02290358 -0.00000383 -0.00009589 0.00000867
35 1 33.048221 16.465443 36.100629 0.01343563 -0.01093285 0.01651220 0.00002982 -0.00015625 -0.00002017
36 1 35.419529 38.065646 16.710846 0.02446746 -0.00615902 -0.01759097 -0.00011861 -0.00000057 0.00004790
37 1 11.462454 5.668590 17.290621 -0.02253147 0.04226733 0.00063777 -0.00000885 0.00007195 -0.00010771
38 1 25.895489 34.866005 2.164188 -0.06612619 -0.00575849 -0.03135322 -0.00005950 0.00015209 -0.00000523
39 1 41.741180 6.519968 39.374960 -0.02888233 0.01520152 0.03396571 0.00002039 -0.00005444 0.00010689
40 1 34.904732 40.404183 12.707003 -0.03064504 0.04066948 -0.02725756 -0.00012254 0.00003361 -0.00008968
41 1 35.368168 25.312775 18.678147 -0.00486373 0.03629324 0.01603042 161.88500153 228.76318435 -556.97767318
42 1 38.134333 27.901333 18.252296 -0.01269765 0.03451215 -0.02459796 0.00149802 0.00131681 -0.00025576
43 1 39.046498 40.905441 18.187620 0.04015688 0.02605944 0.04203729 -0.00016604 0.00001621 -0.00001264
44 1 38.236513 37.510534 5.973276 0.03968669 -0.01389208 0.02178794 -0.00001343 0.00002905 -0.00020290
45 1 36.779396 32.977201 31.209491 -0.01064081 -0.02927275 0.06428661 -0.00003820 -0.00007670 0.00007616
46 1 9.024510 0.707622 39.570977 -0.01956129 0.05839012 0.01453681 0.00006080 -0.00011948 -0.00004111
47 1 39.863125 23.191629 4.783684 -0.01898884 -0.00110958 0.00023161 0.00005062 0.00001087 0.00006385
48 1 6.968425 19.684103 35.516749 0.01445326 0.00241441 -0.02529857 0.00009970 0.00004245 0.00000592
49 1 19.586066 8.932081 40.000154 0.02643246 -0.01557886 0.02120636 -0.00020046 0.00001114 0.00009972
50 1 29.908794 20.443253 12.294200 -0.02799269 0.00530523 -0.03915915 -0.00016323 -0.00000032 -0.00007406
51 1 27.210187 2.747073 31.667190 0.01678518 0.02627172 0.01660570 -0.00020190 0.00027930 0.00018829
52 1 19.930203 21.197788 37.296975 -0.03487220 -0.05611186 0.02801282 0.00006676 -0.00005840 0.00005759
53 1 30.439032 1.681310 2.843569 0.00488591 0.01263854 -0.02429032 -0.00013265 0.00006677 -0.00012011
54 1 32.430126 17.335268 20.611888 0.00390003 -0.03812892 -0.01576713 0.00000195 0.00014915 0.00004219
55 1 20.161844 29.229823 13.661180 0.01538567 0.01826103 -0.00845229 0.00020201 -0.00003976 -0.00010027
56 1 38.001489 8.355264 10.037893 -0.01495069 -0.00732401 0.00963261 -0.00006862 -0.00041460 0.00054660
57 1 15.660766 15.510431 13.455480 -0.00029016 0.00524127 -0.01385895 -0.00017096 0.00014895 -0.00014484
58 1 39.457421 7.227821 38.682018 -0.00705003 0.01011993 -0.00577079 0.00018261 -0.00005659 0.00007691
59 1 20.936015 35.854868 6.113315 -0.00766891 -0.03498407 -0.01746954 -0.00007197 0.00017771 0.00011698
60 1 39.692139 11.287315 37.598149 0.03166044 -0.01492646 0.06162236 0.00015114 -0.00011668 -0.00010370
61 1 35.330100 28.713924 0.044701 -0.04315021 -0.00200592 0.02034801 5644.33849391 819.56766381 767.89218179
62 1 26.171129 24.616905 40.116903 -0.03874772 0.02011719 0.00229197 0.00007223 0.00025891 -0.00002886
63 1 2.072579 42.191911 27.374341 0.00113405 -0.03403484 0.00965423 -0.00003946 0.00001136 0.00003149
64 1 8.515129 6.077759 38.360332 0.01987357 -0.01833507 0.03419132 -0.00005031 0.00000816 -0.00003056
65 1 2.062951 9.797710 3.781204 -0.00137710 -0.00809610 0.00278263 93.24776169 -64.55940195 -14.16881005
66 1 12.397553 40.828732 30.894148 -0.03491426 0.00148196 0.00608117 -0.00008287 0.00008246 0.00002994
67 1 19.475969 18.154036 27.234565 0.02556290 0.01305731 -0.02036110 -0.00000071 0.00038717 -0.00000019
68 1 7.728161 22.658601 6.755747 -0.03798749 -0.00175260 -0.03355023 -0.00001090 0.00011739 0.00011794
69 1 10.284228 30.215140 24.157588 0.00712201 0.05523317 -0.00588544 0.00015492 0.00024580 0.00011534
70 1 40.481323 5.540307 42.728817 0.06985154 -0.04571762 0.05948748 -0.00006810 0.00011490 -0.00011568
71 1 15.130359 14.085078 29.983128 -0.00906974 0.01589877 -0.03101331 -7.71646816 14.21192145 -12.38010716
72 1 31.190097 39.732683 7.159839 -0.04454357 -0.01398479 0.00106077 -0.00012590 -0.00001290 0.00016123
73 1 36.326586 23.316880 30.214220 -0.04405460 -0.00198554 0.00860970 -0.00006981 -0.00009208 0.00004355
74 1 17.925917 7.937529 17.300070 -0.01173240 0.02695437 -0.00779222 -0.00001380 0.00011619 -0.00023924
75 1 34.277595 22.882530 19.515031 -0.03737637 -0.03281918 -0.02514505 0.01059023 0.02367385 -0.00810893
76 1 21.815093 4.942826 2.593826 -0.01547645 0.00538003 0.08355471 -0.00008881 0.00002799 0.00026807
77 1 16.684609 18.073104 8.262256 -0.01104097 0.04563690 0.02682911 -0.00003701 -0.00004730 -0.00001734
78 1 35.923828 25.712614 30.966996 0.00611558 -0.00727151 0.05233036 -0.00001695 -0.00004343 -0.00004033
79 1 36.787357 5.058672 7.763317 0.05787920 0.03457304 -0.04109101 -0.00012561 -0.00012992 0.00009892
80 1 30.212957 14.010624 14.846635 0.04201533 0.01609641 -0.04185683 -0.00005273 0.00008341 -0.00001180
81 1 17.546698 29.905334 15.828927 -0.02750353 0.03638297 -0.04872910 -0.00001556 0.00012949 0.00001061
82 1 35.011271 37.911927 32.926794 -0.03864101 -0.00682593 0.04301565 0.00033514 0.00016734 -0.00065921
83 1 32.208302 13.035449 27.707209 -0.01243450 -0.00060642 0.00541796 0.00007649 -0.00012248 -0.00002188
84 1 11.187981 36.057987 5.311595 -0.02012295 -0.00460374 0.00903265 -0.00012947 0.00019399 0.00005391
85 1 20.211634 32.426942 30.503267 0.03709725 -0.02222716 0.04404843 -0.00007162 0.00000629 -0.00013258
86 1 41.782086 19.051752 31.219619 -0.02663268 0.13517093 0.01591484 0.00018992 0.00000379 -0.00016237
87 1 13.614614 37.674491 6.138741 -0.02223767 -0.01208304 -0.00285040 -0.00006004 0.00003641 0.00007204
88 1 25.290381 31.835446 41.356025 -0.00992512 0.01764122 0.00106778 0.00011750 -0.00007449 0.00017979
89 1 22.684946 33.369534 8.476397 0.00628374 0.08400575 0.03916770 0.00019097 0.00008277 0.00000849
90 1 24.119021 42.124507 12.835553 -0.02878507 -0.00717157 0.03781160 0.00004872 0.00018566 0.00017158
91 1 9.790922 38.388927 10.217553 0.03819317 -0.00776903 0.00634735 -0.00016345 0.00002222 -0.00011358
92 1 10.194891 3.743691 20.500978 0.01525273 -0.02543030 -0.02940445 -0.00013072 0.00000747 0.00011112
93 1 2.000577 42.268578 1.368370 -0.03475851 0.00597802 -0.01892753 -0.00001457 0.00009356 -0.00001977
94 1 20.932924 0.136456 30.287703 0.03083062 0.02657766 0.04940664 -0.00015725 0.00010924 0.00007428
95 1 20.003513 4.475050 15.016747 -0.00786399 -0.00750209 -0.05608411 -0.00007681 0.00009384 0.00018514
96 1 32.699476 11.507360 5.904886 -0.02490257 -0.00217895 0.01272817 -0.00064356 -0.00013113 -0.00016102
97 1 31.914052 27.860811 39.287319 -0.01949450 0.02450798 0.01139641 -0.00035788 -0.00007502 -0.00024061
98 1 17.244884 35.921385 29.769522 -0.06727370 0.01388428 0.05122995 -0.00000221 -0.00002263 0.00011071
99 1 33.902840 33.853368 24.940458 0.02666805 0.01271660 0.05898581 0.00006228 0.00005994 0.00006323
100 1 32.769505 29.449668 42.063554 -0.02442210 0.03312988 -0.01749038 0.02853233 -0.00832857 0.00845386
101 1 14.713668 12.438078 25.156175 0.00012460 -0.00229425 0.01066530 0.00001125 -0.00043944 -0.00054479
102 1 37.242794 3.458668 41.152200 0.00504092 -0.02333742 0.04595844 -0.00000737 -0.00003901 -0.00003360
103 1 31.980193 33.443976 34.418190 0.01107977 0.01055135 0.01460276 -0.00023536 -0.00094724 -0.00069792
104 1 2.718594 25.485684 16.114047 -0.02535207 -0.02660747 -0.03268853 0.00013632 -0.00011516 0.00008914
105 1 11.791059 32.291877 2.835972 0.03389687 0.02297614 -0.01739860 -69866214.86626062 -7936910.40685874 -134055353.19375589
106 1 5.501525 9.301707 26.043907 -0.00611076 0.00881539 -0.02004214 -0.00005602 -0.00007501 -0.00000972
107 1 31.394868 41.755301 35.588239 -0.03523082 -0.03124622 0.02325984 0.00013309 0.00020321 0.00022130
108 1 9.653755 26.267032 29.022009 -0.02733749 0.02516425 -0.00221586 497.32538504 -77.93276215 -355.88321453
109 1 4.929524 29.844029 14.267466 -0.02494190 -0.00124376 0.05155180 0.00000946 -0.00014964 -0.00006724
110 1 37.709544 19.015081 0.575312 -0.04972651 -0.01164427 -0.00126439 -0.00007247 -0.00004827 0.00002148
111 1 9.561577 20.526225 6.569493 0.02958986 0.00695778 -0.02612433 -0.00018787 0.00005538 0.00016425
112 1 35.453676 12.490409 2.370387 -0.02165693 0.01210701 0.01514123 -0.00005326 -0.00011959 -0.00046046
113 1 13.569760 7.224015 24.235428 0.01239464 0.03135044 -0.02405189 -0.00004357 -0.00007677 -0.00000711
114 1 2.760515 37.971281 29.356526 -0.05950061 0.02362776 -0.01484560 -0.00002584 -0.00000257 -0.00011170
115 1 39.471836 25.170679 30.668938 -0.02177738 -0.00293768 -0.01213194 0.00003237 -0.00010472 -0.00006837
116 1 33.054214 14.472502 42.414946 -0.06197786 0.03474544 -0.04374642 -3536.14753178 -3190.12422985 2327.79529726
117 1 0.408805 20.622407 11.220451 -0.02364471 0.00014691 0.07155369 0.00012039 0.00012426 -0.00002764
118 1 13.696249 32.276130 29.504368 0.02693418 0.02573475 -0.03700693 -0.00001955 -0.00008263 0.00001824
119 1 4.281777 33.471128 29.903834 0.01053551 -0.01536965 -0.00648190 -0.00006847 0.00017151 0.00011931
120 1 20.386909 8.866169 5.372974 -0.01175033 -0.02448615 -0.00186167 14003.15746734 -6149.01367217 -1615.04058122
121 1 37.920446 23.831617 12.847780 -0.03968960 -0.05640396 -0.01296581 0.00011401 -0.00003744 -0.00012321
122 1 3.806700 29.090559 0.724613 0.01823464 -0.02886315 0.01197180 -0.00012309 0.00004247 0.00014991
123 1 0.298738 17.178257 34.517004 -0.00597619 -0.05257318 0.01206463 0.00004138 0.00006277 -0.00007209
124 1 32.320272 7.727216 39.902268 -0.00119788 0.04923398 -0.02263453 -0.00004216 0.00012961 0.00002060
125 1 18.973202 32.261388 21.325268 0.04536936 -0.07431883 0.03106814 -0.00011198 0.00010960 -0.00002527
126 1 17.707811 1.170922 29.197514 0.00781743 0.02516271 -0.04272585 0.00006755 0.00006823 -0.00011687
127 1 26.105762 13.272750 33.387132 -0.01586607 0.04469551 -0.02225877 0.00006775 -0.00004172 -0.00016754
128 1 17.095922 20.422702 39.510896 0.07175456 0.01432015 0.01845137 -0.00014448 -0.00003592 -0.00008644
129 1 40.445697 10.117717 23.095430 0.00522147 -0.03601462 -0.01133621 -0.00011540 0.00013761 -0.00003314
130 1 22.586463 34.381479 29.978665 0.08176120 -0.02923180 0.04777227 0.00005191 -0.00000019 -0.00014092
131 1 5.465783 33.321578 7.113937 -0.00119131 -0.01128287 0.02165043 -0.00009548 0.00010490 0.00005593
132 1 20.159471 39.153652 0.227764 0.03908501 0.05070172 0.01007037 -0.00023122 0.00007097 0.00007721
133 1 36.713228 23.670468 9.365075 0.01087156 0.03119587 -0.01513018 -0.00008661 -0.00005062 0.00016055
134 1 28.920638 14.216501 7.529483 -0.00015385 0.03178609 0.02277532 0.00003139 -0.00007896 -0.00010270
135 1 5.004436 1.845548 28.493017 0.04510204 0.01964649 -0.00972150 0.00013129 0.00004867 -0.00005714
136 1 40.430268 39.795726 38.211900 0.00690180 -0.01722749 -0.02294173 -0.00009096 0.00006205 -0.00021670
137 1 10.465297 5.573550 17.450061 -0.04504071 -0.01972191 0.05408993 -0.00000156 0.00011926 -0.00003024
138 1 41.021591 8.275865 4.944759 0.01532653 0.02423705 -0.02701627 -0.00065400 -0.00036807 0.00029360
139 1 32.817800 33.515318 25.123045 -0.03931439 0.00769879 0.03242992 -0.00011183 -0.00010249 -0.00007531
140 1 14.682650 8.582308 14.542034 -0.03004406 0.00763991 0.01786253 18247.01452415 2906.15882404 2758.00882849
141 1 1.938797 17.447527 31.778620 0.05094702 -0.06842142 0.05108321 0.00013913 0.00010122 -0.00010891
142 1 7.472902 24.518519 8.766642 -0.03687363 -0.04108916 0.01502637 -0.00022843 0.00004302 -0.00013335
143 1 18.301777 35.031814 9.032810 0.01486776 0.00186237 0.07882402 -0.00006881 0.00003552 -0.00004719
144 1 31.184735 30.262791 37.909660 0.02664492 -0.00923745 -0.00237214 0.00024198 0.00004234 0.00001101
145 1 12.704071 37.823545 26.421505 0.01619302 0.01000500 0.03732565 -0.00005082 -0.00018312 -0.00002993
146 1 17.517803 17.501428 35.663636 0.00011131 -0.01910273 -0.05673248 0.00010945 -0.00003854 -0.00007897
147 1 5.392217 29.862952 2.569208 0.01237864 -0.02003220 0.04646154 -0.00008474 0.00008286 0.00009742
148 1 37.096399 8.890740 16.732103 -0.03561345 0.01815971 0.02774982 0.00011710 -0.00003393 -0.00007903
149 1 37.538654 25.443680 5.688154 0.00764672 0.00798876 0.01156595 -0.00012201 -0.00000994 -0.00004004
150 1 21.772493 30.841364 9.073705 -0.01826984 -0.00930143 -0.06500077 0.00011260 -0.00013940 -0.00013956
151 1 41.508552 26.214618 14.877815 -0.02629080 -0.02059211 -0.00245770 0.00003198 0.00008755 -0.00019829
152 1 14.863732 17.660756 40.423515 -0.02563722 -0.02551493 0.02156366 -0.00005695 -0.00001449 0.00005736
153 1 31.438868 34.550265 6.325928 -0.04510594 0.01791029 -0.00209382 0.00000095 0.00021887 0.00003464
154 1 14.524213 27.441343 24.661707 -0.02969559 -0.02096837 -0.02060321 0.00019189 0.00018529 -0.00019908
155 1 5.441826 17.518952 3.152880 -0.01389260 0.04785210 0.01161116 0.00006014 -0.00013139 -0.00010956
156 1 29.288444 21.971202 9.539836 -0.00931297 -0.01211926 -0.00035772 -0.00000001 -0.00015145 0.00012885
157 1 40.464920 13.199514 0.001099 0.01084155 0.02547689 -0.05972296 -5411.96227200 8433.02319484 2901.71601572
158 1 12.512321 32.762317 14.444105 0.00952259 -0.02260029 0.05172309 -0.00012438 -0.00013112 0.00014071
159 1 17.927891 27.713880 11.742174 0.06454344 0.00119852 -0.00865961 0.00006980 0.00014613 0.00006617
160 1 36.315755 42.240439 25.956521 -0.00765773 0.01408374 -0.00732031 0.00011548 -0.00003965 0.00010668
161 1 8.975053 16.490761 9.308373 -0.00149807 0.08605429 0.02213032 -0.00009623 -0.00018140 -0.00005716
162 1 14.630445 0.989514 3.653664 0.02196141 -0.01091974 0.01223398 6945.90085801 -625.32331230 -5537.66935354
163 1 0.632685 11.758949 26.932463 0.00691958 0.03967700 0.00889135 -0.00007820 0.00003956 -0.00021193
164 1 9.462216 3.753091 9.712065 -0.03161365 -0.04003009 -0.00351041 0.00017978 0.00009783 -0.00007223
165 1 39.283438 24.075589 34.908518 -0.00518910 0.01771955 0.00963673 -136091.71507841 -50159.13491550 93245.88682887
166 1 21.860338 21.305462 21.459521 -0.00358812 -0.01075667 -0.02090227 -0.00002585 0.00023057 0.00005468
167 1 9.340246 38.595121 10.011503 0.02993404 -0.00313755 0.00680138 0.86894445 -1.08600535 0.18806459
168 1 39.583480 20.779534 22.606166 -0.00189583 0.00701678 0.02363350 -0.00018844 -0.00013733 0.00008181
169 1 12.123265 18.449043 24.985187 -0.06286155 0.00857281 -0.04440425 0.00005939 0.00005181 -0.00008392
170 1 2.953490 41.644575 29.385833 -0.03225229 -0.03416002 -0.00733554 -0.00009934 0.00012659 -0.00004471
171 1 32.598070 22.463997 29.478184 0.04822259 0.01900539 -0.00132790 0.00006448 0.00000524 0.00019008
172 1 41.689024 4.886862 1.190589 -0.04263912 0.00265541 0.02548694 0.00009139 -0.00011083 -0.00017325
173 1 14.250330 17.532273 5.612587 0.05210342 0.04989801 0.00385975 0.00003744 -0.00006181 0.00016475
174 1 24.309182 40.007479 27.624404 0.01195843 0.00870117 -0.02320398 0.00000636 0.00018100 0.00007248
175 1 13.016769 38.176382 33.504140 -0.02828591 -0.02819314 0.03532228 -47.24667060 -3.72984693 -36.17452928
176 1 13.715143 41.352338 41.363682 0.01230140 0.02074701 0.03969442 -0.00005696 -0.00008278 -0.00036414
177 1 5.544949 20.168672 35.711000 -0.00930939 0.04870408 -0.00083212 -0.00000063 -0.00004452 0.00011342
178 1 1.268534 11.334977 25.181833 0.01043961 -0.01331193 -0.01151159 -0.00026334 -0.00009442 -0.00015233
179 1 40.095274 24.006652 36.413831 0.00729364 -0.00382728 0.01449837 -14.26848071 1.21161295 -26.45674762
180 1 7.374200 16.270731 29.187304 -0.01314735 -0.02943889 0.02600987 -0.00008971 0.00014666 0.00006037
181 1 26.898854 17.268751 38.150311 -0.02492649 0.03567356 0.00150491 -0.00001827 -0.00000090 0.00003889
182 1 15.885625 22.863020 8.988305 -0.01390674 0.00885571 0.08226707 0.00006504 0.00002630 0.00013571
183 1 2.127657 39.346329 14.354614 -0.00754737 0.00633757 -0.02295891 -0.00002446 -0.00007524 -0.00003949
184 1 41.253040 15.469924 22.524615 0.01393387 0.03805314 0.01020012 0.00007338 0.00028692 -0.00008454
185 1 27.247472 16.595981 41.727014 -0.03236740 -0.03829172 0.01600038 -0.00021324 0.00003802 0.00009761
186 1 42.700383 22.054805 4.533553 -0.03460531 -0.01745181 -0.00692750 -0.00019273 0.00001297 -0.00013318
187 1 19.005155 10.345897 7.176295 -0.01283407 0.02468508 0.00903265 0.02352803 -0.02499377 -0.03050510
188 1 39.816448 17.040038 17.783924 -0.00368000 0.02881024 0.03165787 -0.00004379 0.00002332 -0.00001290
189 1 2.615371 13.122395 31.602873 -0.04089088 -0.01734976 -0.02778315 -0.00000791 0.00002956 0.00003025
190 1 40.050115 29.496592 10.977293 -0.04124217 0.02201730 -0.00363481 0.00000386 -0.00003343 -0.00011303
191 1 21.572643 30.049369 18.562611 0.04363649 -0.00011819 0.05047121 0.00008591 0.00011885 0.00007860
192 1 30.100694 37.300623 8.556882 0.02254019 -0.00757649 -0.01825013 0.00004410 -0.00000985 -0.00005684
193 1 7.807266 19.284805 0.867799 0.03276252 -0.00077359 0.03227641 0.00001846 0.00021132 0.00007361
194 1 21.848324 18.429724 4.518810 0.02448482 -0.03253656 -0.03802734 0.00005183 0.00000379 0.00010327
195 1 14.964334 31.359961 3.401292 -0.04220170 -0.02894193 0.01640567 0.00213593 -0.00075181 0.00044546
196 1 29.133820 36.110806 9.487917 -0.05872371 0.01709602 0.05832782 -0.00001107 0.00004397 0.00017478
197 1 40.274442 22.545990 1.814965 -0.02144293 0.04897874 -0.05256476 0.00004122 0.00027177 0.00002962
198 1 40.717337 12.836841 31.166075 -0.01688176 0.03076526 -0.00072649 0.00013955 -0.00008774 -0.00004187
199 1 5.163658 28.642243 8.476771 -0.02363157 0.00964100 0.02004027 0.00014340 0.00001559 0.00005683
200 1 3.499946 27.394772 23.614258 -0.03745242 0.00115228 0.07228725 -0.00070086 0.00044652 -0.00040746
201 1 19.403091 36.938814 9.131872 0.00708034 -0.02855830 0.03926728 -0.00012188 0.00008968 0.00005009
202 1 22.743168 38.559949 20.016783 -0.04193553 -0.03611114 -0.00893493 0.00015234 -0.00003365 0.00008662
203 1 42.268260 42.362362 29.359048 0.02929470 -0.00934050 0.02738722 0.00010401 0.00018617 -0.00018072
204 1 29.919621 0.904616 38.505498 -0.06629857 -0.02370489 0.04113776 -0.00007539 0.00003606 0.00008218
205 1 4.054123 37.791698 32.815187 -0.00671001 0.02635204 -0.00438003 0.00001075 -0.00017592 0.00002107
206 1 29.809171 27.845231 23.723271 -0.02021458 0.04332750 -0.00204626 0.00010508 -0.00002892 0.00013200
207 1 14.332571 37.063771 8.834593 0.03130590 0.04660744 0.05955525 0.00019461 -0.00006047 0.00011785
208 1 15.023152 39.693816 2.066774 0.04093817 -0.01109790 0.01849664 0.00005993 -0.00073637 -0.00038444
209 1 7.939836 25.817471 18.839465 0.03356148 0.03911816 0.04781308 -0.00013207 0.00016628 -0.00000646
210 1 1.423929 31.811794 4.667209 -0.03497118 -0.03318870 0.00057696 0.00005774 -0.00012539 -0.00012203
211 1 20.250439 20.368688 22.589496 0.00346720 -0.06506239 -0.05047784 0.00005774 -0.00015818 -0.00002999
212 1 27.358211 26.956490 21.182434 -0.02513420 0.05311076 0.02237122 0.00009015 -0.00011299 0.00009667
213 1 42.022450 41.659462 31.099578 0.03225695 -0.04037264 0.03168809 0.00012168 -0.00007257 -0.00009031
214 1 9.483151 32.054805 29.502924 0.00755737 -0.01123697 0.01557607 0.00001496 0.00010375 0.00013244
215 1 22.616321 40.986886 26.051666 0.00590976 0.00948274 0.01286140 -0.00009569 0.00015833 0.00017779
216 1 25.804628 13.323100 32.147188 0.00531478 0.00145133 0.01120858 0.00003205 -0.00005324 0.00016552
217 1 27.074320 18.650498 39.006225 0.01449244 0.00675007 0.09554190 0.00026023 -0.00009395 -0.00004698
218 1 0.024361 21.746956 25.412391 0.00736826 -0.02077039 0.04787850 -0.00024777 0.00000488 0.00009952
219 1 13.190077 30.631078 21.754204 -0.01332732 0.01576548 0.01259771 0.00008305 0.00006175 0.00012489
220 1 33.385690 9.246056 14.425859 0.05017012 -0.00532214 -0.00371930 -0.00000775 0.00012439 -0.00015564
221 1 1.347037 24.977406 35.786586 -0.00443960 0.02351945 0.00353026 0.00037519 0.00011734 0.00013353
222 1 26.484353 15.116181 1.165707 -0.00570985 -0.01071413 0.00242688 0.00009787 -0.00003040 0.00006547
223 1 32.749542 29.740033 6.048557 -0.08003343 0.06421826 0.02690533 -13.84711385 28.70489185 -10.32543559
224 1 26.556762 17.821758 20.104964 0.08299695 -0.04022722 0.03390078 -0.00016463 -0.00002409 0.00008568
225 1 0.227702 36.553841 21.145288 -0.03984060 0.00081008 0.00634294 0.00010168 -0.00003058 -0.00006048
226 1 18.180822 15.904628 9.332048 -0.00358073 0.02165538 0.05409762 -0.00012295 -0.00011456 0.00012244
227 1 34.954293 0.044080 24.764836 -0.01088476 -0.02315183 0.04213605 -44.49943721 -8.97245483 -15.26877742
228 1 11.951184 15.029431 21.232889 -0.04545103 -0.04413420 -0.00225592 -0.00016500 -0.00007089 0.00014886
229 1 38.102577 19.427257 2.447762 0.03179672 0.04433199 -0.01149942 -0.00017756 0.00027658 -0.00004513
230 1 18.636805 14.370647 8.791515 -0.01376705 -0.00578727 0.00293624 -0.00014222 0.00007023 0.00003413
231 1 41.620797 8.333093 38.170964 -0.04247709 0.00900158 0.03054346 -0.00012135 0.00001963 -0.00006116
232 1 36.462264 31.312812 42.519489 -0.02712648 -0.05698589 0.00946542 -0.00718368 -0.01639240 0.00202741
233 1 15.878115 5.287228 6.635046 0.03784035 -0.00294580 -0.04327793 -0.00001132 0.00016143 0.00019401
234 1 17.405215 1.337486 24.496753 -0.05996120 -0.02905201 -0.03261030 -0.00005003 -0.00004968 0.00014543
235 1 2.241041 34.084310 2.123814 -0.07386309 0.02912665 0.02198859 -0.00005095 -0.00014408 0.00004712
236 1 0.322412 28.742015 22.937701 -0.01929957 -0.01437193 0.02066489 0.00000749 -0.00006048 0.00014829
237 1 6.833545 18.867224 39.459551 -0.07618619 0.01916495 -0.06017670 -0.00005567 -0.00012144 -0.00008414
238 1 2.446829 15.562341 23.935492 0.04462282 -0.02245083 -0.00787705 0.00003342 0.00015860 0.00000680
239 1 38.334917 6.663230 22.532098 -0.00299201 -0.01020508 0.00130414 -0.00011694 -0.00000580 0.00005416
240 1 24.432255 17.819735 1.792930 0.00373641 -0.04741115 0.02554010 -0.00004626 -0.00004401 0.00000160
241 1 16.717697 13.652432 12.471786 -0.02357759 -0.04416378 -0.04040295 -0.00013786 0.00012886 0.00014826
242 1 12.314386 23.447751 15.539434 0.06394579 -0.02209745 -0.06272367 -0.00000983 0.00014149 0.00006881
243 1 5.681371 35.096630 26.992527 -0.04946851 -0.00066005 -0.01086141 -0.00011776 0.00010184 0.00009374
244 1 20.857605 16.912640 41.897266 0.00488877 -0.01737077 0.02760385 -0.00007323 0.00022159 0.00005810
245 1 18.690453 13.392929 1.561025 -0.01738838 0.02029195 0.03702004 -0.00001980 -0.00010425 -0.00005905
246 1 15.465059 24.348941 38.121898 -0.05677303 -0.02659422 -0.01923338 -0.00020661 0.00010170 -0.00004354
247 1 37.703626 10.765662 39.721285 -0.00800716 0.00531690 0.00699394 -0.00025825 -0.00021892 -0.00043563
248 1 35.488090 30.597132 39.171794 -0.04552363 -0.00565569 -0.01190028 0.00000645 0.00062660 -0.00134890
249 1 13.598593 22.230323 37.165153 -0.05953779 -0.04041500 -0.00290233 0.00002696 0.00007727 -0.00000070
250 1 9.724515 18.243065 31.582896 -0.06958607 0.01124011 0.01080424 -0.00011755 -0.00009195 -0.00004237
251 1 22.988555 21.863645 27.886228 -0.04971011 0.02546861 0.02381910 -0.00000331 -0.00004209 0.00003606
252 1 0.997008 15.457943 8.696222 0.04891896 0.03185431 -0.02162072 0.00001232 0.00011154 -0.00016721
253 1 37.023188 35.077224 19.012281 0.02024889 -0.03290463 -0.03054761 0.00030168 -0.00007664 0.00008082
254 1 32.077350 27.429650 0.546371 0.02342571 -0.02978713 0.00291566 -0.00246570 -0.00075128 0.00032216
255 1 2.817961 23.583625 41.452493 0.04327672 0.01435361 -0.00941607 -0.00001770 -0.00020064 -0.00019726
256 1 34.612437 38.910570 40.576026 0.02325388 0.01740075 -0.04782023 0.00018603 0.00029592 0.00062060
257 1 19.393716 21.614521 8.360371 0.00513347 0.02344228 0.04728593 -0.00002863 -0.00007142 0.00004200
258 1 37.502867 27.770201 3.771763 0.04111716 -0.04722761 0.02209525 0.00053686 -0.00016171 0.00053674
259 1 18.781705 32.298131 20.778461 -0.03675231 0.06004049 -0.00925890 0.00002764 -0.00004959 0.00009710
260 1 11.201129 20.285169 38.669166 -0.00682304 0.05702331 -0.02262508 0.00007285 -0.00009955 0.00031172
261 1 30.611173 7.904468 39.290646 0.00462806 0.03097467 -0.00644423 0.00002194 -0.00012282 0.00013571
262 1 11.204044 8.096387 16.611306 0.00991654 -0.02369029 0.01369969 13997696.66644579 16226417.76522111 1329073.76643090
263 1 16.868370 22.434350 31.468077 -0.01649134 -0.01125938 -0.00028055 -2.60536175 1.83716887 -0.18476163
264 1 37.631445 29.586914 22.491097 0.02475111 0.00452369 -0.05933975 0.00007727 -0.00006291 0.00001299
265 1 29.027194 42.738030 31.413687 0.01572043 0.02426441 -0.03844164 0.98952853 -1.15256861 -0.83095997
266 1 19.245319 10.226568 9.879884 -0.02873413 -0.00995246 0.02623987 -0.00016752 0.00013294 0.00046371
267 1 42.675549 1.099412 36.135627 -0.03886807 0.00739432 0.03239177 -0.00022368 0.00000491 -0.00010159
268 1 2.112553 5.072451 19.729742 0.00355402 -0.04186968 -0.01658416 -1.10325171 7.05965733 0.32928905
269 1 21.550720 35.556299 14.366977 -0.00124107 0.00436050 -0.01998713 -0.00000426 -0.00004164 0.00010763
270 1 42.021317 10.312802 31.610441 0.05075024 -0.00895217 -0.01581202 0.00015825 -0.00011263 -0.00002614
271 1 1.566115 15.410390 17.245533 -0.05186105 0.00557821 -0.00246017 0.00022879 0.00010365 0.00006899
272 1 20.199437 26.650691 32.395575 0.01286396 -0.04408429 0.05862147 0.00019418 0.00010983 0.00002801
273 1 2.635687 35.939344 12.580358 0.04653329 -0.02828128 -0.03102665 -0.00007032 0.00003293 0.00010345
274 1 17.222792 34.144968 33.466730 0.03191997 -0.03993894 -0.00300366 0.00018116 -0.00012525 0.00003053
275 1 4.617229 29.162647 29.138649 -0.01573047 0.04020833 0.00613388 -0.00012927 0.00033928 0.00020826
276 1 24.300569 2.629796 27.313308 0.05127950 -0.02039638 -0.00662725 0.00004872 0.00009519 0.00005102
277 1 39.540497 2.353824 5.165452 -0.02312946 0.02956065 0.02950352 -0.00002073 -0.00007355 0.00016908
278 1 0.341605 28.903873 16.058004 -0.00013845 0.03952410 0.01489258 0.00020021 0.00012559 -0.00014302
279 1 2.358624 26.697509 19.588587 0.00378169 0.00312785 0.01450600 -0.00003148 0.00002257 0.00002544
280 1 4.848250 13.081229 26.449784 0.03354555 -0.01455956 0.05043054 0.00008907 -0.00006579 -0.00001399
281 1 39.743603 10.170099 28.679448 -0.03830318 -0.02584098 0.02599051 0.00007093 -0.00006638 0.00005104
282 1 4.293488 23.007112 16.442687 0.03017796 -0.01243672 -0.04547083 0.00000488 -0.00004070 0.00005039
283 1 19.025139 25.327418 6.984862 0.07727475 -0.06242728 -0.01474039 -0.00005805 -0.00007888 -0.00008962
284 1 19.702957 18.866551 2.569499 0.03610967 0.02448095 0.05684039 0.00007048 -0.00008545 -0.00004327
285 1 29.657849 30.007122 20.776268 0.07199340 -0.03898923 -0.04888295 -0.00004604 0.00001784 0.00007317