ITEM: TIMESTEP
0
ITEM: NUMBER OF ATOMS
4488
ITEM: BOX BOUNDS pp pp pp
0.0 38.972604
0.0 38.972604
0.0 38.972604
ITEM: ATOMS id type x y z vx vy vz fx fy fz
1 1 34.502081 4.367431 21.169387 0.01422609 0.00980861 0.01660731 0.00004489 -0.00014242 -0.00008451
2 1 9.480648 0.034160 2.372823 0.01497031 0.03840984 -0.02814845 -32546.45322543 17837.13382471 79299.25520276
3 1 26.740543 2.323227 29.111209 -0.01160973 -0.00994144 -0.03812776 0.00020523 0.00002694 -0.00008321
4 1 7.562830 12.197498 36.718628 0.00101887 -0.03643447 0.06492595 -0.00011179 -0.00000003 0.00012795
5 1 27.291063 4.214190 33.128715 -0.01972546 -0.04631877 0.07499572 -0.00000579 0.00022750 0.00004183
6 1 15.663623 9.463121 30.778045 0.03220687 0.01466083 -0.02802673 18671604.85488766 -10025859.39574302 4102438.00868168
7 1 26.316963 10.215975 26.362152 -0.05264347 0.00480483 -0.00163441 -0.00003620 0.00001212 0.00003592
8 1 27.724820 19.787455 28.875608 -0.02064558 0.01032976 0.03057081 0.00021138 -0.00011210 -0.00004953
9 1 3.225629 28.005907 24.561907 0.00202053 0.01215818 -0.00248153 -0.00001440 0.00015004 -0.00005497
10 1 9.107453 17.255504 26.659749 0.05122338 -0.02205116 0.02738419 -0.00008639 0.00001291 -0.00005302
11 1 34.275302 20.166569 9.703342 0.02351529 -0.05344601 -0.02400143 0.00003858 -0.00006058 -0.00011065
12 1 8.489741 29.363528 8.956058 0.00674105 0.04257057 -0.04974704 -0.00021345 0.00014882 0.00002122
13 1 27.338314 22.645675 34.627813 -0.04138452 -0.02328473 0.02901745 -0.00006438 0.00008711 -0.00003626
14 1 29.752977 31.162369 37.405961 -0.04633657 -0.02320062 0.05536440 0.00012379 -0.00001171 -0.00013268
15 1 13.515324 33.904018 21.099400 0.00341070 -0.04917400 -0.00795077 0.00012134 -0.00018872 0.00019577
16 1 5.880516 1.995952 22.321059 0.04791432 0.01002330 -0.00992551 -0.00006606 -0.00016652 0.00001314
17 1 30.906350 17.598001 8.729738 0.00923566 -0.01886034 0.01217160 -0.00017202 0.00004734 0.00008118
18 1 31.363145 38.506093 32.433036 0.01744750 -0.04506668 0.03968395 -149412.95620651 85455.02861235 44912.56520847
19 1 12.926654 11.587728 26.210807 0.06434913 0.04322379 -0.04176293 0.00000185 0.00012785 -0.00006150
20 1 1.051046 31.634135 14.159552 0.01455409 0.00359509 -0.04706548 -0.00011468 0.00010040 -0.00003591
21 1 21.571508 14.002473 22.061758 -0.05131589 -0.00597559 0.05454439 -0.00010742 0.00004060 -0.00008989
22 1 1.109317 25.533185 20.362967 0.04568416 -0.04050331 0.03290865 -0.00013462 -0.00003745 -0.00001869
23 1 30.539613 30.851497 36.295827 -0.01201323 0.05189598 0.02547129 -0.00016978 0.00004848 0.00016534
24 1 30.945183 10.598225 4.892903 -0.00334969 -0.01284705 -0.00836843 -0.00001187 -0.00015147 0.00002731
25 1 33.972179 21.190981 17.238118 -0.00555585 -0.02547100 0.02912196 0.00002416 0.00000310 -0.00014684
26 1 37.953141 13.169054 0.767809 0.03023042 0.05300981 0.05729142 0.00007401 -0.00003504 0.00014090
27 1 30.490604 28.958935 32.323388 -0.02871285 -0.01267872 -0.02712409 -0.00010703 -0.00017963 -0.00007581
28 1 18.171331 26.034843 20.353535 -0.02267575 0.01630375 -0.03189946 0.00008750 0.00004485 0.00010401
29 1 15.342218 26.233889 12.809773 0.00164337 -0.00052578 -0.00996512 0.00015213 0.00004196 0.00004795
30 1 18.682701 22.446592 9.652755 -0.00064106 0.01597963 -0.00601257 -0.00000001 -0.00004062 0.00004020
31 1 22.695740 24.471833 4.457021 0.05450707 -0.00493938 -0.01685454 0.00010657 -0.00000399 0.00022190
32 1 37.928097 7.989868 20.409091 -0.00486401 -0.00603705 0.03118518 0.00003941 -0.00013709 -0.00010679
33 1 9.829135 32.983913 5.761476 -0.03397529 -0.02239403 0.00438075 0.00016584 -0.00008179 -0.00003017
34 1 7.924454 29.212682 34.767447 -0.01678855 -0.00840237 0.00185746 -0.00008499 0.00007078 -0.00005098
35 1 10.839039 0.345155 21.320010 -0.02786340 -0.03508618 -0.03520651 0.00003884 -0.00005318 0.00012332
36 1 16.688159 26.245516 38.800041 0.01222863 -0.00785507 -0.01845666 0.00012126 0.00010329 0.00012398
37 1 29.170208 36.589374 38.798492 -0.03783244 -0.02097430 -0.02288354 0.00011106 -0.00002300 0.00008808
38 1 27.101257 8.186644 17.372961 0.01433310 -0.01191195 0.03302977 0.00000097 -0.00008895 0.00003353
39 1 17.231772 21.732767 1.218026 -0.05992975 -0.02015161 -0.01667945 -0.00005736 0.00011818 -0.00003300
40 1 25.813787 25.899375 33.163482 0.03939654 0.02276789 0.00207826 0.00000079 -0.00005299 -0.00001962
41 1 26.518549 29.585342 22.417375 0.00297619 0.01495474 -0.04456612 0.00007538 0.00014757 -0.00007905
42 1 36.868540 7.024085 9.945774 0.05032624 0.01218872 -0.05218596 0.00000768 -0.00003902 0.00012512
43 1 6.087082 8.607857 27.522961 0.00327295 0.04334473 0.00861188 -0.00006286 0.00007065 -0.00008547
44 1 3.244253 21.383945 37.717053 0.00069774 -0.00832188 -0.00103154 -0.00003557 -0.00002781 -0.00004679
45 1 19.258633 32.261452 24.970384 0.03609293 -0.01796027 -0.01960702 -0.00001650 0.00004156 -0.00006521
46 1 8.341456 4.972408 1.068172 -0.05640637 0.03747837 -0.05192050 -0.00008798 0.00010006 0.00012908
47 1 4.621053 24.027685 30.990288 -0.03877916 0.06216598 0.01659557 397900835.90387642 -422463103.87181896 -372683206.58855116
48 1 31.530536 13.880021 1.451559 -0.04524785 -0.02136600 -0.03301527 -0.00015530 0.00016549 0.00010218
49 1 36.271656 1.050572 23.508569 -0.00799973 -0.03092532 0.03937772 -22237.05348253 10494.01279830 7540.78887562
50 1 27.851897 23.380797 22.437885 -0.03141263 -0.01541248 -0.00923472 -0.00021568 -0.00005273 0.00007313
51 1 7.959682 29.576724 8.940996 -0.04962827 0.00466795 -0.01080069 0.00003784 0.00003534 0.00021073
52 1 25.764840 1.621318 9.882423 -0.00344403 0.02686925 -0.01443594 0.00005011 -0.00000441 -0.00005340
53 1 9.263908 18.967332 9.111845 0.04049970 -0.00299692 0.01082055 0.00007930 -0.00012599 -0.00001946
54 1 16.316739 29.285954 2.962762 0.01479196 -0.00149960 0.02087390 26601.01649055 -19585.92369461 215.35366320
55 1 2.786605 22.255921 10.587808 -0.01856688 -0.00503274 0.03416146 0.00005461 0.00019104 -0.00011748
56 1 29.017680 26.663492 21.446449 -0.01084148 -0.00553345 0.00182944 56.83398439 -38.19675450 -3.78055911
57 1 34.979949 11.701995 8.912345 0.00570172 0.00285012 -0.01376968 -0.00001346 -0.00010740 -0.00000319
58 1 13.813146 35.115841 17.992411 -0.03917576 -0.01052594 0.03227228 -0.00000505 -0.00008615 -0.00013740
59 1 6.205374 11.564692 8.360632 0.02085273 -0.01868003 -0.02240053 0.00015425 -0.00010642 -0.00003495
60 1 34.681673 19.461269 0.309851 0.02913439 0.02655178 0.00202703 -0.00001915 0.00001656 0.00004084
61 1 14.496125 38.624374 28.763642 0.00716007 -0.03798539 -0.02122832 -0.00003339 -0.00001357 0.00006473
62 1 30.368574 31.203350 38.167782 0.04364746 -0.04293503 0.00066363 0.00004350 -0.00002898 0.00007505
63 1 13.234396 14.540574 6.475239 0.06733833 0.01490680 -0.01021759 0.00001100 0.00001124 -0.00013406
64 1 38.247691 20.040166 12.941955 -0.03052785 0.00771740 -0.06015048 -0.00002211 0.00004348 0.00002726
65 1 17.938606 10.627952 29.273467 0.00805317 -0.03088323 -0.01610374 1.45444544 0.80177872 -1.85269747
66 1 22.576161 22.091571 1.776412 -0.02461424 -0.00511556 0.07045117 0.00002986 -0.00004566 0.00000273
67 1 20.855710 24.054586 21.215339 0.01295608 -0.01505970 -0.00225558 0.00013479 0.00020691 0.00013245
68 1 34.354201 35.846122 28.542611 0.02707800 0.01618853 -0.00875311 0.00010561 -0.00018595 -0.00013825
69 1 13.892221 25.699380 31.606215 0.03080503 0.01684482 -0.03013021 0.00021363 -0.00012307 -0.00004921
70 1 15.621708 35.467768 0.924822 -0.07763085 -0.00750993 0.02657883 0.00008198 0.00009614 -0.00015622
71 1 27.453502 31.584153 0.626057 -0.01319852 -0.04647330 0.04255730 0.00005406 0.00014281 0.00014169
72 1 18.492618 27.998239 37.876306 0.00325717 -0.00748779 -0.02736372 0.00022964 -0.00009175 -0.00065156
73 1 30.391079 17.414442 17.489018 -0.02016991 0.01648668 0.02442512 -0.00005593 -0.00001091 0.00010511
74 1 28.139206 28.626988 28.283303 0.04090408 -0.00455672 0.07555977 -0.00015524 -0.00009267 0.00018254
75 1 17.751921 17.144135 15.709568 0.03453217 0.00758880 -0.01083934 0.00013077 0.00003776 -0.00003916
76 1 17.783092 27.931799 17.697863 -0.02764560 0.04931075 -0.01840113 -0.00018015 -0.00007316 -0.00008661
77 1 3.799855 5.061411 18.346530 -0.00048401 -0.03447970 -0.01257431 -0.00010644 -0.00003006 0.00008329
78 1 36.796493 28.185208 23.556996 -0.05579144 -0.00713708 -0.02229728 0.00004140 -0.00008195 -0.00002375
79 1 6.344420 7.845393 27.795129 -0.00084793 0.01810163 -0.01188862 -0.00002643 0.00013288 0.00006689
80 1 20.768396 36.386684 5.218256 0.00256736 0.01279016 0.03767228 0.00004410 0.00006960 0.00009648
81 1 9.509659 12.068597 20.460976 0.00755268 -0.00607113 -0.00353030 0.00010805 0.00002381 -0.00006663
82 1 37.548510 33.943376 11.956816 -0.06626620 0.01106184 0.00708040 0.00004128 -0.00013111 -0.00018460
83 1 21.794961 28.971804 5.601377 -0.04537263 -0.00124191 0.03976377 0.00021575 0.00003021 0.00011441
84 1 31.097067 14.443075 2.892575 -0.06135639 0.01844155 -0.01726172 -0.00005445 -0.00003181 -0.00005121
85 1 1.572831 10.254480 22.527979 0.00343066 -0.00787854 0.00575969 -0.00002114 -0.00006822 -0.00008949
86 1 14.770696 9.641456 38.135154 -0.00129962 -0.00130720 -0.04386717 -0.00005643 -0.00007200 0.00007101
87 1 10.779200 20.794064 22.668922 -0.00645963 -0.02647645 0.02846300 0.00001778 -0.00012733 0.00005374
88 1 21.209919 38.232559 21.036432 -0.00897097 0.01365810 0.01608273 0.00001716 -0.00000648 0.00002491
89 1 2.503998 30.788084 4.407746 -0.04953457 0.03473598 0.00956929 -0.00001622 -0.00004966 -0.00009418
90 1 12.233000 34.973222 25.543191 -0.02789251 0.02104819 -0.01146057 -0.00006728 0.00002345 0.00012203
91 1 4.346537 21.112621 9.590225 0.02680119 0.03796433 -0.00678582 -0.00004380 -0.00002748 -0.00006999
92 1 37.504380 14.810225 38.101259 -0.05588788 0.02115474 0.01693053 -0.00003122 -0.00001691 0.00010088
93 1 10.290766 37.090489 8.727303 -0.01797146 0.00507634 0.03438946 -0.00000423 -0.00000450 0.00019548
94 1 17.707129 6.907053 26.147141 0.02740071 0.03329945 0.02328213 0.00000452 -0.00065626 -0.00038300
95 1 9.126231 30.404532 34.485932 0.01739096 0.00332779 0.01288604 0.00009752 -0.00006270 -0.00001413
96 1 14.592714 26.488189 18.700820 -0.02194244 -0.01314834 0.02710771 -0.00007437 0.00009859 -0.00009828
97 1 8.967136 29.301723 15.819896 0.04077386 0.00822034 -0.02654895 -0.00002692 -0.00008584 0.00012960
98 1 21.516145 38.221522 11.244812 0.01885539 -0.00214093 -0.05493789 0.00007128 0.00010784 -0.00002083
99 1 32.591373 17.731040 38.051463 0.00665100 -0.02949335 0.01384157 -0.00011371 0.00015088 0.00002823
100 1 1.746482 38.328323 23.143364 0.01233898 0.03473591 -0.03187548 0.00046393 -0.00015424 -0.00010943
101 1 31.266034 35.920949 21.648165 0.02243670 0.01455754 -0.00827689 -0.00017814 0.00005857 -0.00008295
102 1 17.731910 7.796164 21.311715 -0.02137088 0.01964643 -0.02244719 -62.99308714 1.17265290 55.79309297
103 1 27.144622 16.976870 33.667527 -0.00770212 0.01253315 -0.00205628 -0.00012554 0.00006611 0.00001928
104 1 25.592224 4.586383 30.602263 -0.03170569 0.01649036 -0.01452328 -0.00025077 0.00011971 -0.00008183
105 1 32.904873 27.516093 30.803478 0.00676448 0.00083952 -0.04393092 -0.00005119 -0.00015784 0.00004710
106 1 25.478639 0.656088 11.433432 -0.02681641 -0.02240172 -0.01490698 0.00010605 -0.00019330 -0.00002805
107 1 23.285645 37.513201 26.592619 -0.00917420 0.01923911 -0.01045417 0.00007966 -0.00002428 0.00018537
108 1 15.077115 23.893494 17.165229 0.02361999 0.02473764 0.01458710 0.00001593 -0.00013199 0.00020952
109 1 34.610434 15.102954 37.433615 -0.00799617 -0.01653261 -0.02631729 -1631.76687279 6087.59161520 8246.63016058
110 1 33.753044 27.972940 38.534691 0.00005377 -0.00895146 -0.00671329 0.00008898 0.00015299 0.00010349
111 1 5.313859 0.955430 22.156618 0.02476469 -0.02823433 -0.06117715 0.00005547 0.00006963 -0.00007474
112 1 9.997050 13.242779 26.196969 0.02792944 0.02942612 -0.00332447 -0.00011697 0.00009464 0.00013164
113 1 32.389718 16.844573 13.965171 0.01344972 0.07425814 0.02179287 0.00010582 0.00011878 0.00009573
114 1 29.937921 11.443936 22.260339 0.00810086 -0.00349901 -0.02830844 -0.00011329 -0.00003219 -0.00000842
115 1 32.811039 0.510433 25.011187 0.04080368 -0.03864915 0.03027128 -0.00184248 -0.00041440 0.00088746
116 1 29.884883 8.244321 31.146978 -0.03575236 0.02415249 0.01128384 -0.00004558 0.00000714 -0.00015495
117 1 7.590658 35.821649 13.073759 -0.00861661 -0.02962381 -0.00589466 -0.00004306 0.00006914 0.00015308
118 1 24.034507 30.618018 36.702545 0.01425439 -0.04965540 0.02290785 -0.00017821 -0.00014895 -0.00003389
119 1 38.859511 26.677612 13.275234 0.04203083 -0.00108879 -0.02085313 -0.00009063 -0.00007061 -0.00011393
120 1 2.607624 33.985521 24.648297 0.00842056 -0.02421592 -0.01606349 0.00008110 0.00016024 0.00002267
121 1 18.239188 15.808084 1.250435 -0.00129001 -0.02060630 -0.04726313 0.00002141 -0.00003585 0.00010335
122 1 21.414646 12.764272 10.053618 -0.00788635 -0.02382545 0.03814798 0.00003838 -0.00005778 -0.00005449
123 1 7.819220 13.874040 4.818502 0.03857936 0.03925989 -0.00412749 -0.00027334 0.00002856 0.00005261
124 1 12.033867 23.992829 32.767027 -0.02267865 -0.00386737 -0.02183138 -0.00007852 0.00012530 -0.00000597
125 1 7.540791 38.842523 14.165729 -0.01361677 -0.02687680 0.01516019 -0.00002305 -0.00014191 0.00000683
126 1 8.257546 9.894511 1.768811 -0.01478487 -0.00584611 0.01465140 -0.00010508 0.00012418 -0.00001315
127 1 2.200577 17.776641 24.424476 -0.01326201 -0.02317842 0.02971489 -0.00008815 -0.00002022 -0.00003167
128 1 20.015330 27.210604 7.621226 0.01414890 0.05444360 -0.03558143 -0.00019955 0.00000443 0.00016077
129 1 27.006420 10.191282 17.697549 0.00302317 -0.00141130 0.02675217 45.94967769 -122.36066420 -97.20923232
130 1 5.184523 35.559961 38.174106 -0.00398235 0.00197945 -0.01910443 -289276.87951462 -1397683.52715878 -1248349.32916457
131 1 6.984182 4.846336 22.673457 -0.00571076 0.01641092 0.05903264 -0.00014704 0.00001953 0.00001313
132 1 9.296188 31.431516 9.613824 -0.04626969 0.02515847 -0.00845067 -0.00009006 -0.00012818 0.00019785
133 1 14.961970 9.371285 15.289825 0.01424453 -0.01896971 -0.02538080 -0.00009367 0.00009895 -0.00013663
134 1 0.116962 15.982821 25.785255 -0.00662706 -0.02330275 0.01273041 0.00006547 -0.00011536 -0.00000721
135 1 26.916618 14.874778 3.711160 -0.00982631 0.00461053 -0.01995140 0.00008299 -0.00000812 0.00004380
136 1 13.879814 5.986912 34.045661 0.02018293 0.04304614 -0.01062792 -0.00009292 -0.00034160 0.00030607
137 1 34.150907 23.913507 7.247450 0.00578060 -0.03377486 0.00620072 -0.00008787 0.00015618 0.00003314
138 1 9.698873 28.181762 5.606338 0.05763143 -0.01285844 -0.01562093 0.00000099 0.00000438 -0.00001824
139 1 4.269572 22.624409 26.672577 0.05243079 -0.05044439 -0.00916689 -0.00007649 -0.00026855 -0.00070207
140 1 24.962528 23.774753 9.297992 -0.05016163 0.04149316 0.01224426 -0.00001673 -0.00004029 0.00007573
141 1 14.981487 38.041886 6.276534 -0.00963456 -0.02188191 0.04542722 2292.04259854 -2920.25899779 -2356.77227862
142 1 16.466438 12.393070 19.489172 -0.08226081 0.02387943 -0.00681455 0.00003295 0.00035664 -0.00030011
143 1 18.947574 0.907419 28.979168 0.03307249 0.00971124 -0.06009731 -0.00011320 -0.00004754 0.00016383
144 1 9.084866 16.491506 11.773411 0.00600377 0.02237001 0.03484563 0.00002445 -0.00000714 0.00023092
145 1 10.231708 5.393532 16.914288 0.01673448 -0.01684669 0.00129457 0.00013386 -0.00006327 -0.00006455
146 1 38.181905 0.375403 8.579347 -0.07097048 -0.03396747 0.01926439 -0.00003531 -0.00001988 0.00003265
147 1 27.764540 34.245732 30.913490 0.02008952 -0.00708112 0.04584542 -3090.24238492 840.72794469 -621.29144982
148 1 33.349225 9.977038 10.097653 -0.01614193 0.01344546 0.01956672 0.00001574 0.00012851 -0.00011670
149 1 28.164002 11.660132 6.998192 -0.01935597 0.00164298 0.03497326 -0.00011491 0.00002357 0.00025104
150 1 38.886533 37.341324 30.416489 0.04835713 -0.00843134 -0.02745380 42275.56593119 305018.16416103 18880.37354246
151 1 38.489737 29.533400 3.871813 0.03977274 -0.05062892 0.04066602 -370.60967196 -4648.67790237 2095.11901424
152 1 23.500708 4.532433 20.776218 -0.00134123 0.03000660 -0.04033597 0.00016819 0.00006368 0.00000414
153 1 8.392175 0.508578 2.246462 0.05629645 0.03246914 -0.01636017 3029.22546791 -1320.30755667 351.66174526
154 1 22.421365 22.131038 7.351027 -0.01177174 0.02757548 0.01337908 -0.00005223 0.00003825 0.00008650
155 1 31.293011 29.658588 33.184387 -0.04143184 0.00461407 -0.02942845 0.00014849 0.00009227 -0.00003929
156 1 5.282272 18.014361 11.755583 0.01938815 0.00904551 -0.03753806 -0.00002645 -0.00008755 -0.00009291
157 1 25.105725 32.222387 24.679846 0.00309754 0.00410564 0.00912671 -0.00004804 -0.00003900 -0.00006198
158 1 23.870911 13.783955 12.875639 -0.01376308 -0.01429663 -0.03760003 0.00001110 0.00006418 -0.00000472
159 1 4.573575 38.761940 34.218200 0.02316993 0.03556422 0.02370109 0.00010631 0.00022191 -0.00015370
160 1 24.360474 20.971251 22.970503 0.02589486 -0.04948686 0.01861461 0.00004738 0.00000818 0.00014075
161 1 27.706239 2.737667 1.420190 -0.03207983 -0.02768061 -0.01668416 0.00000989 0.00006542 0.00002802
162 1 24.362477 7.969998 5.112584 -0.01207646 -0.04849809 0.04747473 0.00007771 0.00004821 0.00017962
163 1 0.215287 29.814094 16.074056 0.01513049 0.08796929 -0.03928936 0.00016445 -0.00004485 0.00000796
164 1 4.528874 16.245299 22.546749 -0.00345344 0.04379048 -0.02678328 0.00011275 0.00002658 -0.00012797
165 1 18.866944 25.784266 30.525044 -0.02479685 0.04920922 -0.05685046 0.00001756 -0.00003914 -0.00003627
166 1 32.606364 29.435938 37.431825 0.01227417 -0.02461107 0.00118818 -0.00017828 -0.00015086 -0.00006528
167 1 10.671580 0.345020 5.861304 -0.00195518 0.03823098 0.03077192 -0.00020794 0.00044768 0.00209230
168 1 18.687430 35.368834 7.521057 -0.00289245 -0.02460435 -0.04205102 0.00058339 -0.00039380 0.00035929
169 1 1.125524 29.617831 11.011692 -0.01678116 0.01876303 0.03138999 -0.00003752 -0.00004736 -0.00000498
170 1 35.202780 4.910968 29.486163 -0.02075978 0.04788846 0.01195952 -0.00000703 0.00008164 -0.00006582
171 1 16.312817 15.587081 18.401484 0.03292506 -0.01725663 -0.00677554 0.00025021 0.00015024 0.00006112
172 1 34.799349 33.581362 32.203839 0.03572483 -0.00086747 -0.03267329 -0.00008679 -0.00015510 0.00006206
173 1 21.651076 35.791346 10.967202 -0.03223435 -0.02301568 0.00983995 0.00010366 -0.00013075 0.00004846
174 1 19.767092 12.377551 29.459654 0.03759422 0.00433070 -0.02093735 -0.09596973 -0.09188354 -0.00974104
175 1 37.341889 38.603763 26.268437 -0.03061624 -0.05569350 -0.00968158 0.00044662 -0.00081527 0.00087357
176 1 36.663113 24.840239 19.380261 0.04493258 -0.11881295 -0.00736924 0.00010438 0.00002449 -0.00004208
177 1 26.296438 32.482137 16.622615 0.00715884 0.07582317 0.03202538 -370.46397941 -632.29915064 -230.81009869
178 1 7.327157 26.572474 20.563572 -0.03439625 -0.05589870 -0.04345755 0.00005059 -0.00004967 0.00008370
179 1 5.252043 22.594190 14.368849 0.02814559 0.00874381 -0.01179686 -0.00016171 -0.00010907 0.00005610
180 1 33.454651 35.244856 14.325970 -0.01645893 -0.03830741 -0.00693192 -0.00009019 -0.00004296 -0.00007515
181 1 34.964029 37.730228 26.627092 -0.02424541 0.04172006 -0.02645165 -0.00054581 -0.00071295 0.00083691
182 1 35.774509 32.422835 30.321708 0.00764503 0.00040579 -0.03624381 -0.00011107 -0.00008232 -0.00006370
183 1 20.832535 38.965927 2.569231 0.06793699 0.07837659 0.00947065 0.00009226 0.00002207 -0.00010618
184 1 35.123952 25.381543 38.823004 0.02738264 -0.00349832 0.01161387 -0.00005762 0.00000681 -0.00012805
185 1 24.384433 23.415754 15.214314 0.00894391 -0.04058834 -0.00968147 -0.00005426 0.00021116 0.00003949
186 1 6.601938 34.319051 38.706690 -0.01414753 -0.01949448 -0.01220109 -3.67449599 3.21665567 -1.38052978
187 1 12.900761 15.052316 17.333104 -0.08315705 -0.03221992 -0.00689296 -0.00011028 0.00004490 0.00014780
188 1 5.930537 11.174671 2.265257 0.03028954 -0.03744499 0.00149065 -0.00010392 0.00013736 -0.00019744
189 1 31.462684 19.813425 38.071567 -0.00356162 0.01793662 0.03227995 -0.00000370 0.00029872 0.00005760
190 1 35.028544 22.613223 26.082283 -0.00830077 0.03485541 0.00560348 0.00011450 0.00009181 -0.00004428
191 1 36.566304 25.206411 29.275273 0.01917664 -0.04734808 -0.07136798 -0.00018271 -0.00016066 -0.00000424
192 1 26.328340 17.701348 28.045051 0.01514305 0.01592388 0.01139088 -14183.06119472 -24454.11829279 -46485.17386935
193 1 37.145217 24.609320 22.233952 0.00082442 0.03253185 0.03150464 -0.00012214 -0.00005411 0.00001404
194 1 20.559066 10.170076 17.716094 0.00396288 -0.00613031 0.02054471 0.00018146 0.00022013 -0.00019676
195 1 26.688729 38.020733 15.902980 0.03152384 -0.01688013 -0.00507837 0.00005073 0.00007966 0.00006033
196 1 18.235779 11.940142 27.093860 0.02986905 0.01286841 0.01456472 -0.01342291 -0.05920778 0.09812133
197 1 35.895477 24.670912 17.914804 -0.02620104 0.01083406 -0.01370047 -0.00001747 -0.00002456 0.00015798
198 1 22.110498 37.422474 28.995018 0.02673906 0.03311105 0.00272408 -0.00004479 -0.00021395 -0.00007920
199 1 6.437306 3.058066 25.689511 -0.00123778 0.02887541 0.00531524 0.00008678 0.00000965 0.00019547
200 1 7.290285 23.324973 6.720081 0.01804490 -0.00415194 -0.04664994 0.00003332 0.00002516 -0.00014787
201 1 28.334401 27.728541 5.286595 -0.02176334 -0.00903450 -0.02947250 -104.87411036 29.43965115 -70.51743949
202 1 20.951142 23.026530 26.371013 -0.00542532 -0.01624450 0.03057084 -0.00006165 0.00029987 -0.00001396
203 1 2.221741 17.004646 37.991999 0.04988560 0.02558661 0.01402405 -0.00001755 0.00008784 -0.00000556
204 1 27.205626 24.921762 16.705984 0.04404930 -0.02171556 -0.01505565 -0.00000006 -0.00013983 -0.00028521
205 1 1.132603 9.740328 0.258186 -0.02101958 -0.00131035 -0.02173611 0.00011869 -0.00010430 0.00009154
206 1 5.576332 12.088687 35.355292 0.01152212 -0.01063804 0.07003368 29067959.28678757 -7817661.96157444 -6263200.74173092
207 1 8.163016 3.955577 37.243670 -0.06272922 -0.00006038 -0.02853519 -0.00007159 0.00009266 -0.00015102
208 1 8.544558 24.140545 18.555879 0.00970686 -0.02109938 -0.00141321 -0.00009543 -0.00000250 0.00010051
209 1 3.926734 15.664118 32.607446 0.01978650 0.00525690 -0.04896871 -0.00007968 0.00044177 -0.00041885
210 1 4.599855 33.970074 34.251264 -0.00809916 -0.02396088 -0.04687282 -0.00021618 -0.00040725 -0.00094064
211 1 9.536778 8.170210 10.074140 -0.01874097 0.03060220 -0.03878131 0.00002937 0.00012386 0.00005948
212 1 20.865004 3.547519 5.983503 -0.01694068 0.00239231 -0.00374152 -0.00020721 0.00014183 -0.00009816
213 1 26.009186 37.364478 9.539702 0.00871332 0.00371244 0.00950661 0.00006312 0.00007373 -0.00003372
214 1 15.164373 7.176005 13.868493 0.01521641 0.04455212 0.00517979 -0.00008654 -0.00000887 -0.00011394
215 1 13.593516 0.504733 7.881419 -0.00839168 -0.01873368 -0.02153600 0.06241207 -0.06461264 -0.07237149
216 1 31.869056 38.410483 13.638120 0.01234896 0.02389436 0.02954160 46665.05999940 30909.80869177 -64630.02825633
217 1 0.802544 16.690056 32.505008 0.00973056 -0.02019936 -0.00281731 0.00011002 0.00004841 0.00020917
218 1 16.860781 13.109497 24.584870 -0.02909585 0.02249821 -0.01757965 -0.00009377 0.00027089 -0.00041624
219 1 15.774993 30.567501 24.184333 -0.01332824 0.04418053 -0.05762134 -0.00009201 -0.00006713 0.00008783
220 1 30.276284 31.759027 34.750296 -0.00342950 -0.01911611 0.00835695 0.00016208 -0.00009038 0.00024300
221 1 19.480865 5.552939 15.955651 0.06506446 -0.00355277 0.03714224 -0.00008928 -0.00013137 -0.00024000
222 1 20.765834 8.448754 12.170690 -0.02129052 -0.02899339 -0.03847864 -0.00011730 -0.00006293 -0.00003629
223 1 13.568402 27.623223 17.666046 -0.02170033 0.04999060 0.05694118 -0.00002918 0.00008321 0.00005686
224 1 26.853822 23.847493 4.854505 0.00682178 -0.01836425 -0.00865855 -0.00055377 -0.00102053 -0.00037519
225 1 14.702583 1.213981 30.344861 0.02429799 0.03228649 0.03749094 -0.00009207 -0.00000190 0.00000004
226 1 38.239049 24.837234 13.920696 -0.00891584 -0.00075815 0.00786490 -0.00006283 0.00018541 0.00009901
227 1 23.446497 14.250762 15.460797 -0.03496706 -0.01566364 0.05772785 -0.00012596 0.00017657 -0.00005153
228 1 1.586183 20.911830 18.640943 0.01219708 0.00792582 -0.00844556 0.00004543 0.00005093 -0.00000975
229 1 37.314987 32.174236 18.175312 -0.00157059 -0.00794745 -0.00252590 0.00011743 0.00001979 0.00007127
230 1 20.598084 6.260418 28.761343 -0.04986688 -0.03567647 -0.02202852 0.00022073 -0.00032791 -0.00012534
231 1 38.953618 35.567906 17.035659 0.01726389 0.01426839 -0.03008885 0.00006452 -0.00014621 0.00012303
232 1 28.206234 19.264863 12.642023 0.02854943 0.03008218 -0.00019740 -0.00003798 -0.00000824 -0.00002998
233 1 4.507614 15.918555 33.902658 -0.02823865 0.04416908 -0.00578859 -0.00044335 0.00091503 -0.00048711
234 1 22.922891 4.134641 20.764492 0.03695862 -0.01450946 -0.03881310 -0.00002644 -0.00028350 0.00004624
235 1 20.168827 38.075813 6.475140 -0.04379302 0.04924343 -0.00167297 0.00028491 -0.00002148 -0.00004920
236 1 8.264686 10.836601 20.046996 0.01472059 0.01343236 0.02280894 -0.00013901 -0.00000235 0.00000638
237 1 2.780880 8.556532 36.890405 0.01717276 -0.01887035 0.02375701 -0.00019588 -0.00043943 0.00013472
238 1 34.233827 23.085174 22.780115 -0.03201117 0.00784022 -0.00287268 -0.00013678 -0.00005628 0.00012318
239 1 30.747866 8.843603 28.835262 0.04358692 -0.03285348 -0.06742283 -0.00001899 -0.00005471 -0.00010353
240 1 27.508891 36.487906 20.682000 -0.05121523 0.00279657 -0.00918015 0.00007315 -0.00006608 0.00009405
241 1 26.486288 20.628771 13.614829 0.08057910 0.02210277 0.00550153 -334.85417114 -367.41292235 -101.59251476
242 1 19.333875 7.510312 29.985413 -0.01540963 -0.02675740 -0.05683866 -88857493.45180675 274415051.31995130 470045986.58610463
243 1 11.397626 0.003681 19.213142 -0.01094372 -0.02467004 0.02727194 -0.00006275 0.00001392 0.00023583
244 1 3.003750 8.662907 29.242732 -0.02182171 0.03676620 -0.01787274 0.00011975 0.00004720 -0.00007267
245 1 19.260702 34.118720 22.635192 0.01545011 -0.00124878 0.02596073 0.00007599 -0.00008201 -0.00012887
246 1 24.233523 13.473599 26.987223 0.02038795 -0.03236430 -0.00044791 -0.00023871 -0.00046819 -0.00016680
247 1 3.859673 21.710490 32.468706 0.05757557 -0.01597527 -0.02070681 0.00486884 0.01461872 -0.00926939
248 1 37.252798 10.853169 6.087634 0.01418607 0.04769123 0.02426598 9069.42331360 -34080.46890072 2920.82968287
249 1 20.114366 10.099333 36.941857 0.00859662 0.05004989 0.01224727 -0.00001169 0.00013701 0.00003481
250 1 20.973267 25.444314 32.344912 -0.00537987 0.00553939 0.02251084 0.00002951 -0.00020187 0.00002046
251 1 3.627579 33.832251 9.002576 0.04710710 -0.02249335 -0.02087337 -212.56044433 -174.80889355 -78.92794973
252 1 22.692756 13.429146 26.497990 0.03153152 -0.00026182 0.03663099 13662.94975760 -8882.02031020 -3565.18625455
253 1 37.155753 29.215265 36.757348 0.03945494 -0.01616878 -0.00731047 0.00009112 0.00004405 -0.00018730
254 1 35.576366 27.818303 31.253322 0.03732815 -0.02925556 -0.03064266 0.00005787 0.00002060 -0.00007591
255 1 18.156160 35.219856 30.831507 -0.00363967 -0.00409086 -0.04843770 -44333.27184659 -37965.85033213 92117.03339338
256 1 14.422776 4.196063 13.391223 0.00538341 0.02995341 0.02204568 0.00010331 0.00012305 -0.00004815
257 1 18.327472 12.709517 36.973900 -0.01786648 -0.02050921 0.03079918 0.00015149 0.00006288 0.00003952
258 1 29.263813 37.096500 18.291040 -0.06917531 0.02226725 0.02512715 0.00002061 -0.00009637 0.00016950
259 1 28.886144 34.246941 1.165360 -0.02686490 -0.00964112 -0.00810687 0.00010091 -0.00017675 -0.00004171
260 1 27.360783 28.379488 4.251684 0.02553156 0.01418384 -0.00229067 61.79194720 -41.31334375 65.68208892
261 1 25.029641 27.235338 1.448520 0.00866561 0.02224946 0.04850568 -0.00026320 -0.00002024 -0.00042806
262 1 22.608644 33.951377 20.224890 0.00342539 -0.01841782 0.02605168 -0.00027965 0.00013560 0.00025158
263 1 31.309139 14.726073 22.286013 0.00262119 -0.00603974 0.03082933 -0.00008750 -0.00000834 -0.00010869
264 1 23.330013 3.493673 22.687480 -0.06908993 -0.02969472 -0.00235307 -7.57298538 -41.38056712 -13.23545959
265 1 35.502608 22.220734 22.451030 -0.00400675 0.02956828 0.02929433 -0.00012285 0.00009040 -0.00006674
266 1 21.033540 2.006819 17.742271 -0.01244675 0.04152882 0.03702023 -0.00011570 -0.00017865 -0.00001587
267 1 24.188032 4.534660 18.497037 -0.00739578 -0.02037200 0.00983716 0.00030742 0.00035131 -0.00077929
268 1 4.133897 23.250004 12.556471 -0.01052500 0.05151046 -0.07998930 -0.00001886 -0.00015695 -0.00009431
269 1 10.540099 30.419174 34.072643 -0.01500219 0.01220292 0.04763333 0.00025883 -0.00003719 0.00010263
270 1 10.055031 24.401434 29.161304 0.00027262 -0.06720273 -0.04013538 0.00016613 -0.00002293 -0.00000219
271 1 35.059807 13.398114 27.800530 -0.00346773 -0.00686514 -0.00586619 -0.00008944 0.00003340 0.00010914
272 1 25.534923 24.425265 10.948500 -0.03016530 -0.01397984 -0.02639222 -0.00019200 0.00041408 -0.00018584
273 1 12.659853 27.422849 28.944243 -0.05398206 -0.01640226 0.00235876 0.00000218 -0.00000967 0.00004483
274 1 13.798275 11.188332 2.620605 -0.00595025 -0.00202448 -0.00133412 -0.00005260 0.00006194 0.00005039
275 1 11.099616 11.906796 3.293262 0.03179822 0.02578582 0.09269966 0.00008528 -0.00017052 -0.00006854
276 1 4.556468 7.978830 9.092321 0.00207261 -0.00967986 -0.01099405 0.00000180 0.00011799 0.00006451
277 1 36.028012 12.087277 11.231284 -0.02688506 0.09323721 0.01680685 -0.00016276 0.00000051 0.00031244
278 1 21.548858 32.732707 20.659498 0.02626451 -0.03588635 -0.02176303 -0.00000161 0.00000175 0.00018773
279 1 30.485123 37.908070 21.457866 0.00831524 -0.00440189 0.03621938 8601958.96172935 2914152.01300498 5889655.34135520
280 1 8.652514 6.356872 24.805180 0.03447458 0.02559498 0.00027661 0.00006606 -0.00002014 -0.00007075
281 1 1.466747 1.312110 23.605331 0.05324273 0.00447152 0.01521521 0.00132082 -0.00002495 -0.00001287
282 1 2.913351 35.645120 35.230589 0.03199601 0.01748806 -0.04251670 -0.00132282 0.00001260 -0.00161724
283 1 15.856253 10.289243 38.266260 0.02817890 -0.01052221 0.02442903 -0.00008861 -0.00002980 -0.00008033