ITEM: TIMESTEP
0
ITEM: NUMBER OF ATOMS
3579
ITEM: BOX BOUNDS pp pp pp
0.0 36.809067
0.0 36.809067
0.0 36.809067
ITEM: ATOMS id type x y z vx vy vz fx fy fz
1 1 2.372817 6.102608 16.903810 0.01803619 0.02801915 0.01659486 -219.60045104 -108.06648491 -4.88508509
2 1 26.557346 9.117571 20.842001 0.00484556 0.02522903 0.04201444 0.00012107 0.00006627 0.00002246
3 1 32.934347 25.249736 13.478237 0.00257405 -0.02767847 -0.03961125 0.00007023 -0.00004121 0.00005140
4 1 14.512437 2.467900 15.161227 -0.00962411 -0.06369454 -0.00295722 -0.00015380 0.00015671 -0.00021029
5 1 25.539510 6.905570 36.664652 0.03774282 0.03324988 -0.01211802 0.00004726 -0.00015363 0.00010492
6 1 25.438611 1.662868 16.090734 -0.00310287 -0.00755269 0.01749266 0.00010143 -0.00000245 -0.00000471
7 1 2.991426 15.574153 32.090564 0.07588703 0.05523134 0.00008351 -23109.60930834 -44721.63180857 33245.12462464
8 1 32.426656 36.083810 23.101749 0.04287864 0.01727706 0.09272215 -0.00001198 0.00015104 0.00004450
9 1 3.683212 16.311039 29.722539 -0.00019962 -0.04627838 0.00956835 -0.02864831 -0.03075370 0.09810116
10 1 35.515583 35.512740 19.587921 -0.03416665 0.01065663 -0.01239563 0.00011721 0.00000495 0.00000145
11 1 23.608007 18.336217 1.642229 -0.04501507 0.03607058 0.00780848 0.00014235 -0.00006991 0.00006873
12 1 20.467070 28.709344 11.919427 -0.03234060 0.00196596 -0.01259509 -0.00013526 0.00000069 0.00019781
13 1 3.674533 33.711076 36.646082 -0.01470681 0.01139655 0.00448408 -0.00013455 -0.00002368 0.00007478
14 1 17.780640 28.015633 11.709595 0.03858238 0.00039098 0.02000157 0.00010376 0.00007460 -0.00019472
15 1 17.798387 21.968886 14.212297 -0.02145449 -0.04060131 -0.01155757 2215.94050999 -5212.26983607 9621.93988314
16 1 23.746460 25.665026 5.997387 -0.03286370 0.02370571 0.01671041 -0.00009504 -0.00009871 -0.00006844
17 1 32.872897 9.355942 18.430752 -0.02195053 0.05169777 -0.00569740 0.00002473 0.00017237 -0.00003623
18 1 0.289637 15.406147 21.161384 -0.00265469 -0.03786458 0.01172276 -0.00000936 -0.00010788 0.00002126
19 1 7.417600 32.881995 33.932280 0.00639590 0.03337864 -0.05839837 -0.00003156 -0.00007664 0.00009606
20 1 1.748629 32.271819 22.158232 0.00652133 -0.00250551 0.01048994 0.00004485 0.00006942 0.00012190
21 1 20.387554 22.228262 24.314659 -0.03371710 0.00031122 0.03000328 -0.00014013 -0.00009097 -0.00006339
22 1 27.654146 20.076529 14.701147 0.02419822 -0.00336689 0.03282346 0.00020322 0.00019463 0.00007600
23 1 33.452194 10.236081 12.272768 -0.01616587 -0.00129592 -0.00335953 0.00002902 0.00014482 0.00012112
24 1 34.776529 2.355477 19.475555 -0.01525559 0.00211120 -0.00222262 -0.00008113 0.00016062 0.00016535
25 1 35.777487 9.768392 30.773089 0.04441144 0.02007450 -0.04691403 -0.00000335 -0.00004363 0.00005368
26 1 33.236429 29.015000 28.972592 0.02507605 -0.02831619 0.02668094 0.00008714 0.00000864 0.00001579
27 1 16.644820 35.069883 35.141192 -0.02020653 0.02006045 -0.00506153 -0.00019799 -0.00017003 0.00014730
28 1 1.379421 2.647449 32.705963 0.02384125 0.00632030 0.06629225 0.00005152 0.00013801 0.00013336
29 1 15.475087 18.404128 31.881010 -0.04742718 0.06178633 0.02648833 -0.00012822 0.00012239 0.00000147
30 1 28.648525 19.700497 7.828485 0.01337925 -0.02272717 0.04760569 -0.00003596 0.00002549 0.00010878
31 1 30.357194 31.729854 36.388914 -0.00012813 0.00525701 -0.01419422 -4231.22289384 -2413.02874543 6596.40457259
32 1 17.507008 24.740045 0.096989 -0.01079240 -0.02055461 0.01460680 3526.75217518 3593.57357258 -1347.14012852
33 1 11.071808 8.248753 2.353249 -0.01620699 0.00251872 0.06969459 -15.67096537 -0.56594870 -45.78824378
34 1 8.755874 15.691324 9.054221 0.00236942 0.01556279 0.02894871 0.00001719 -0.00010495 -0.00000963
35 1 33.673572 35.399136 1.005256 0.00859255 -0.03312454 0.02987545 0.00025485 0.00027822 0.00009306
36 1 22.012413 22.195689 6.319076 0.01322377 0.04398222 -0.00141312 -0.00005206 -0.00031649 0.00004184
37 1 32.278534 32.812473 12.990293 0.05392809 0.03486528 0.05626244 0.00011344 -0.00012285 -0.00007606
38 1 8.763246 16.383732 5.183711 0.02524271 0.02045960 0.01287573 0.00000455 0.00006948 0.00026401
39 1 4.853950 0.947776 0.866492 -0.00069697 0.03701275 -0.08302697 0.00030969 0.00003079 -0.00009434
40 1 16.201112 7.796185 16.747092 0.04177657 0.04872770 0.04507746 28.71395439 -30.81710196 -42.77055938
41 1 4.366046 7.453453 11.061613 -0.02252150 -0.04123790 -0.01279689 0.00000660 -0.00002772 0.00002422
42 1 14.969504 18.970113 34.546316 0.01378326 -0.05001606 0.03285790 0.00005863 -0.00007910 0.00010512
43 1 11.905334 22.994576 30.327663 -0.02997642 0.00431448 -0.00027569 0.00024596 0.00001577 0.00008595
44 1 16.431695 15.640463 5.857970 -0.04744961 -0.02487457 -0.05828902 -0.00017746 0.00013948 0.00019838
45 1 1.201369 7.003913 34.077541 0.02843551 0.01566294 -0.01112979 -0.00011127 -0.00015841 -0.00009879
46 1 28.086801 0.667352 20.181276 -0.03987515 -0.02420063 0.06607844 0.00006459 -0.00011456 0.00008395
47 1 16.575404 27.211795 19.173633 0.02991758 0.04087856 -0.01991234 -0.00006718 0.00013077 0.00012308
48 1 24.294971 10.531506 1.697954 -0.03699290 0.00462351 -0.02515818 39237559.37278321 150396140.06258193 165021087.51361540
49 1 15.689990 9.360512 35.466151 0.05458063 0.03318909 0.00876374 -0.00001588 0.00006388 -0.00018381
50 1 25.515231 27.800578 28.566372 -0.00464961 -0.04583074 -0.00372844 0.00000628 -0.00002239 0.00007761
51 1 29.879551 5.353331 8.483417 -0.02872298 -0.04951706 -0.01268040 0.00007374 0.00000387 -0.00002387
52 1 5.164808 33.652186 16.389021 -0.01764597 -0.00727244 0.00482862 0.00001195 0.00006691 -0.00000296
53 1 27.992729 35.581486 3.319760 -0.02498521 -0.02103803 -0.04564807 -2599.94695779 872.74616281 568.04443300
54 1 3.031630 13.018235 0.344128 -0.01740382 0.02118707 -0.01316215 -0.00009482 -0.00005581 0.00015412
55 1 11.368510 12.556848 32.214241 -0.01792575 -0.02396086 -0.01775237 0.00008499 -0.00013073 0.00015806
56 1 34.207503 12.443494 9.686609 0.02399970 0.03010078 -0.04167768 0.00015851 -0.00011707 0.00010449
57 1 6.526366 34.154570 10.533100 0.00843520 -0.00246458 0.01935853 0.00012336 0.00002655 -0.00003654
58 1 20.043369 5.412843 26.303914 -0.00025730 0.03091611 0.02355659 -0.00000620 0.00005327 -0.00002149
59 1 23.192970 36.677833 23.047742 -0.00666629 -0.01685028 -0.00492961 0.00000019 -0.00005691 -0.00000621
60 1 8.246226 24.471815 29.254557 0.04408820 -0.03150407 0.01340840 0.00014032 0.00014052 0.00010424
61 1 35.606735 0.094072 22.621813 -0.02771783 0.00086487 0.01229935 -0.00004774 0.00001067 -0.00009248
62 1 28.829910 26.915929 25.318710 -0.01092631 -0.04019393 0.01902845 0.00004784 -0.00001601 0.00003207
63 1 5.788783 6.172349 0.678377 -0.03035675 -0.00459821 0.02141398 -0.00007078 -0.00018660 -0.00012635
64 1 27.939029 12.581868 10.105634 0.06302728 -0.02832171 -0.02327503 -0.00005355 -0.00010472 -0.00008581
65 1 25.486349 34.769674 5.799631 -0.04232037 -0.00011936 -0.00932981 -11.64525553 51.65716728 -4.44405744
66 1 1.909583 36.572150 25.864030 -0.00863095 0.01784368 -0.03010377 -23.62847653 -33.19324622 3.61350637
67 1 12.925160 23.908478 27.382143 -0.00119623 0.03152501 -0.01245734 0.00006500 -0.00001928 0.00013283
68 1 27.241624 18.455563 5.022313 -0.00274518 -0.02372626 -0.00219716 0.00007202 0.00005585 -0.00012394
69 1 3.327631 22.502094 15.671558 -0.04062611 -0.03126202 0.01004513 0.00007169 0.00000108 0.00003616
70 1 32.144068 26.170314 29.083442 -0.02031754 -0.00199289 -0.04975759 0.00012894 -0.00000540 0.00012790
71 1 30.789333 36.213714 23.051448 0.00311851 -0.07676149 0.06106359 -0.00003592 -0.00012145 0.00007612
72 1 20.222198 14.029069 25.668958 0.02782147 -0.02103573 -0.04574713 -0.00006314 -0.00005257 0.00015977
73 1 13.990588 0.785646 24.392513 -0.01321243 0.01984947 0.00525011 -0.00000489 -0.00003481 -0.00012599
74 1 33.238383 10.619569 2.379025 -0.01092137 0.06554271 0.01014794 -0.00003555 -0.00002033 -0.00012889
75 1 3.500187 11.667158 4.566979 0.02486213 -0.01758125 -0.03847312 -0.00019682 0.00000094 0.00005722
76 1 7.401243 5.234641 14.389943 0.00424913 0.00616990 -0.00056270 0.00009084 -0.00004330 -0.00002840
77 1 9.038778 27.905425 28.965688 0.00981470 0.00049973 -0.00456102 0.00014295 0.00003849 0.00006554
78 1 18.189544 28.169955 6.241439 -0.07961652 0.02610729 -0.04430718 0.00005758 0.00002524 0.00025777
79 1 33.545473 6.662432 30.701829 -0.03723980 0.00270581 -0.00243274 0.00013841 -0.00004993 -0.00006531
80 1 12.788749 3.935858 7.363407 -0.04834884 0.02378496 -0.02852390 0.00010057 0.00005574 0.00012676
81 1 30.768900 6.445641 10.240056 0.02767660 0.03056015 0.00105125 0.00000508 0.00007795 -0.00024111
82 1 8.734576 28.122583 6.174484 -0.06080061 -0.02245159 0.00853227 0.00011410 -0.00011991 -0.00012922
83 1 36.144692 9.458034 32.863186 0.03616709 -0.00845872 0.00310144 -0.00009628 -0.00017746 -0.00006329
84 1 24.531409 21.268958 13.434246 0.03617999 0.02307697 0.01657738 0.00004075 0.00004732 -0.00013283
85 1 24.329836 14.117572 19.579568 -0.04345424 -0.04798204 0.02134922 -43.32676326 20.15286686 65.77411047
86 1 0.553674 21.142468 7.270720 -0.00305143 -0.01815180 0.03256878 0.00000708 0.00004045 -0.00004315
87 1 27.033244 11.807607 12.964092 0.02145260 -0.04309326 -0.00537543 0.00016864 0.00012257 0.00004705
88 1 12.916525 9.873780 23.107803 -0.01347465 0.01041477 -0.00559566 -0.00006866 -0.00000690 0.00012942
89 1 14.886621 22.542586 32.131843 -0.01346477 0.02549599 0.01158360 -0.00002953 -0.00017964 -0.00016036
90 1 34.691829 12.364543 19.541394 -0.02101291 0.00192463 -0.06431354 0.00008803 -0.00007054 -0.00006961
91 1 3.993874 13.837549 2.379550 -0.01288368 -0.04054655 0.00711377 -0.00017277 -0.00021715 0.00002228
92 1 16.463320 8.164895 12.819893 0.00418004 -0.01318234 0.01457830 0.00003063 0.00019953 -0.00177360
93 1 4.535745 17.947711 17.486597 -0.03701140 -0.06677556 -0.00007205 -0.00005843 0.00001277 -0.00002693
94 1 30.603348 19.068394 14.928906 -0.02827823 -0.07721081 0.03408992 0.00003565 -0.00006665 -0.00016784
95 1 8.552353 32.653893 15.596184 0.04263664 -0.00206841 -0.00835097 -0.00001166 -0.00000648 -0.00003680
96 1 26.259815 5.273481 32.114681 -0.03927930 0.02937015 0.01235986 -0.00009190 0.00003988 0.00000627
97 1 25.506372 15.640571 6.336190 -0.00930015 -0.00739312 -0.06476930 0.00004317 -0.00008948 0.00005541
98 1 18.771179 6.413111 29.037224 -0.03887654 -0.02598495 -0.05099238 -0.00008505 -0.00002916 -0.00002144
99 1 12.683445 29.310238 23.142637 0.02225153 0.00559317 0.03235567 0.00005494 0.00000803 0.00014477
100 1 32.548919 9.287396 16.598607 0.06246577 -0.00775743 -0.00243817 4618.45285600 -2123.00960741 12033.79792109
101 1 4.350460 2.357668 19.061240 0.05994251 -0.02859101 0.03127745 0.00018828 -0.00039659 0.00021161
102 1 29.233861 5.782108 15.451988 -0.00068812 -0.02398802 0.01787173 -1092879.00335837 1912413.10776309 1650199.02380444
103 1 12.776773 34.395732 14.557633 -0.01505895 -0.05075124 -0.00647567 0.00003341 -0.00010185 0.00010110
104 1 35.939782 23.510348 32.996296 0.06986643 0.03883232 -0.04619755 -0.00020826 -0.00005483 0.00009603
105 1 7.508649 22.954779 27.354089 0.03080652 0.05558362 -0.01226004 -0.00009263 -0.00014382 0.00005931
106 1 7.619121 20.376960 1.497482 -0.02720492 0.01932797 -0.01396392 0.00003558 0.00013878 -0.00003119
107 1 25.971461 13.666055 35.761657 0.00494461 0.02985189 0.00581027 0.00052596 0.00055489 -0.00043571
108 1 31.106897 12.542457 32.621015 -0.02981501 -0.00296154 -0.04571260 -0.00003603 -0.00011370 -0.00005314
109 1 5.398553 7.843984 10.982860 0.01637294 -0.05636448 -0.01557068 -0.00009958 0.00004875 0.00016584
110 1 9.072490 34.185656 18.713340 -0.01854303 0.01951494 -0.00087897 -0.00000224 0.00005537 0.00006144
111 1 4.196188 6.646248 22.989881 -0.01204300 0.00504268 0.00096854 -0.00005377 0.00005740 0.00005876
112 1 10.621380 13.116586 2.399622 0.03671454 0.01024783 -0.02691720 -0.00006731 0.00046519 -0.00005213
113 1 8.229825 5.216487 18.265395 0.00345706 0.05154045 -0.01231360 5.76921427 -2.86929625 -4.23978253
114 1 12.526417 6.611310 30.654926 -0.00065420 -0.01911314 0.01717118 -0.00006288 -0.00000639 -0.00012054
115 1 9.014574 26.727825 24.970288 0.03548355 -0.00013126 -0.05562331 -496.34410230 -1152.18116427 301.47078100
116 1 11.008517 1.592256 20.532652 -0.00537323 0.01323756 0.00845006 0.00039347 -0.00014480 0.00025297
117 1 32.127246 17.424360 2.614446 -0.03170983 -0.02593919 0.01698740 -0.00000651 0.00016884 -0.00009315
118 1 11.724868 14.932535 12.081852 -0.03458336 -0.09524634 -0.03468419 -0.00012932 0.00005082 -0.00008952
119 1 15.543875 26.071286 2.570397 0.00547981 -0.02213035 -0.02118343 -0.00148334 0.00104972 0.00192904
120 1 30.758948 13.829925 32.089605 -0.01898106 0.04438672 0.03663435 0.00011899 0.00008433 0.00003679
121 1 36.085662 35.287164 10.272587 -0.02260034 -0.02528407 0.03509927 0.00014977 -0.00009179 0.00010074
122 1 18.391550 28.291514 1.123394 -0.01348048 0.00718420 -0.01491384 0.00044540 0.00202987 0.00052735
123 1 20.166098 8.475351 19.240022 -0.03392537 0.04219732 -0.01769416 2165.95890097 -9569.47527321 17215.87371822
124 1 9.271650 13.426733 2.473423 0.00027321 0.01527130 0.04774848 -0.00005052 0.00008219 -0.00019436
125 1 21.798958 10.831544 16.967881 -0.01117019 0.02043369 -0.01603013 0.00079000 0.00123137 -0.00162776
126 1 21.147775 13.579582 23.622234 0.02560421 -0.00742970 0.00207566 139.82758038 398.06555395 -416.44798900
127 1 11.151686 16.472623 9.491487 -0.03370729 0.01844791 -0.02929586 0.00011394 -0.00007368 0.00001661
128 1 10.848390 28.440111 4.489396 -0.04907662 0.06907965 0.01852952 -0.00001978 -0.00007447 -0.00012033
129 1 30.556999 24.941459 10.167313 0.00020916 0.00432201 0.02305067 0.00003455 0.00020205 0.00016004
130 1 13.051725 4.920279 6.402260 -0.00506280 -0.04782821 0.01337109 0.00012852 -0.00020885 0.00009337
131 1 0.297946 24.376109 27.553897 -0.04427098 0.01519451 -0.03807285 0.00001109 -0.00014554 -0.00013812
132 1 24.357829 22.034774 23.177110 0.00876163 0.00911007 0.00579381 0.00001320 -0.00007546 -0.00007888
133 1 18.248502 31.815322 3.337915 -0.03257331 -0.01928298 0.00325263 -0.00001930 0.00003891 -0.00009140
134 1 18.438699 27.871694 8.976527 -0.06047055 -0.03659114 -0.01358063 -0.00012095 0.00011540 0.00013560
135 1 21.844706 4.990373 3.014540 0.00222649 0.03016671 0.01735717 -0.00022553 -0.00012053 0.00007548
136 1 15.745900 34.534117 31.439542 -0.05768507 0.03503076 0.03967648 0.00002476 0.00017164 -0.00011363
137 1 16.084104 22.944385 29.165749 -0.02771575 -0.03787540 -0.01828679 -0.00010328 -0.00011729 0.00003362
138 1 32.417059 17.901049 5.808912 0.00848505 0.03883493 0.00328577 -0.00012951 -0.00010909 -0.00004616
139 1 5.708609 24.885690 11.261551 -0.06593613 0.00161685 0.11264327 0.00006957 -0.00007628 0.00021869
140 1 0.965525 26.483078 33.576784 -0.01558261 -0.03353430 0.05170578 -0.00016583 -0.00000756 -0.00007180
141 1 34.230629 21.660810 12.684025 -0.05283893 0.00150982 -0.03025520 136.16479000 -1858.18513344 3475.02610755
142 1 3.721914 23.874499 10.356350 0.02840335 0.03143809 -0.02905277 0.00001296 0.00000704 0.00001211
143 1 26.638036 1.161870 6.439027 0.01283223 0.01531610 0.00286007 0.00035237 0.00325800 0.00154103
144 1 11.934347 18.627904 0.608242 -0.01842816 0.02058377 0.00571008 0.00013410 0.00004323 -0.00007782
145 1 2.034392 13.491061 4.951672 -0.03456432 -0.06452975 -0.03025808 0.00014215 -0.00005813 0.00002798
146 1 22.449421 24.996750 13.150461 0.00039152 0.02079635 -0.00615138 0.00016279 0.00012665 -0.00002033
147 1 22.812020 18.457685 0.504999 -0.03033278 -0.00559388 0.04867488 0.00005235 0.00009849 0.00009279
148 1 3.575789 28.059085 21.042452 0.05683336 0.02854774 -0.00393476 0.00018244 0.00000451 -0.00000994
149 1 21.837409 1.588950 14.300876 -0.03220990 -0.01206704 0.03197402 0.00016923 0.00008860 0.00000405
150 1 0.684903 28.146155 27.872705 -0.01465484 0.00022156 0.01889979 -107145.57945539 -442948.92817807 -230386.70193256
151 1 32.694309 5.449805 26.922361 -0.00747586 -0.03666615 0.02012417 0.00021528 -0.00008203 0.00005017
152 1 0.499607 24.306000 27.963642 0.03050455 0.02618734 0.01309946 0.00003797 -0.00189093 -0.00002645
153 1 23.885475 16.474412 9.850500 0.01588771 0.01660669 -0.03802211 0.00003777 0.00003548 0.00017113
154 1 28.071462 23.710840 33.819976 0.02837200 -0.02359184 0.04987788 0.00011845 -0.00005123 -0.00015131
155 1 16.590668 35.365656 22.614257 0.01292030 -0.03895531 -0.02549765 -0.00009569 0.00001885 -0.00014356
156 1 23.507197 23.833251 21.943878 -0.05240092 0.00421029 -0.02336136 0.00001140 0.00003186 -0.00014401
157 1 14.679015 11.747687 0.032410 0.01654110 0.03748734 -0.03427945 0.00023469 0.00009764 -0.00021702
158 1 24.753709 7.642182 36.395708 -0.00047154 -0.01964876 0.00097351 0.00029589 -0.00187615 -0.00141193
159 1 34.580879 35.004871 9.501806 0.05562034 0.04544808 0.02163249 0.00006094 0.00006796 0.00019179
160 1 11.028368 2.451019 8.916239 0.02486668 -0.01852064 -0.04795819 -0.00005270 0.00018259 -0.00014800
161 1 15.710711 7.105180 8.006218 -0.00278346 -0.03221449 -0.04222461 0.00005343 -0.00014257 0.00012747
162 1 20.523763 1.664437 9.285134 -0.04468132 0.00248475 -0.03222096 -0.00019545 0.00004563 0.00007010
163 1 4.170243 34.741628 18.856119 0.01522977 0.00978160 0.01327557 -0.00001220 0.00015570 0.00012167
164 1 2.115081 10.799139 5.351540 0.00494024 -0.03490677 0.01512206 468.58840720 -240.80171074 121.44066013
165 1 21.954331 3.687958 23.577253 -0.00185478 -0.00656476 -0.01548423 -0.00007037 -0.00002194 0.00000761
166 1 10.691269 27.984316 30.280279 0.03752422 -0.02030969 -0.04689016 -0.00001598 0.00009556 0.00037162
167 1 13.827008 18.092707 9.793019 -0.02281164 0.05470111 0.04065804 -0.00005545 0.00001692 0.00000346
168 1 7.256442 2.758288 18.378683 -0.00776276 0.00363366 0.01659531 0.02549479 0.06415091 -0.00308657
169 1 26.770032 4.220330 11.633023 -0.02584487 -0.02682745 0.01653422 -0.00033802 -0.00015062 -0.00062674
170 1 29.204673 3.595365 8.035128 -0.00376732 0.01328857 0.00485794 0.00001262 -0.00005925 0.00007378
171 1 5.896601 28.042387 36.288525 -0.02584805 -0.00276520 -0.02140327 0.00007531 -0.00007563 -0.00007479
172 1 24.830942 33.539539 29.618476 -0.01860413 -0.01698484 -0.00026536 0.00009081 -0.00000020 -0.00002727
173 1 22.194022 27.154837 21.514524 0.00745128 -0.01954051 0.01090102 -0.00009435 0.00007135 -0.00010174
174 1 25.416845 6.083013 23.441382 0.01626862 -0.04646070 -0.00133927 -65.00796492 133.06530586 -158.22967343
175 1 34.256971 18.443978 1.922466 -0.00467993 -0.00240289 -0.02133995 0.00001893 -0.00011348 0.00003963
176 1 24.133699 8.170933 24.982050 0.02710926 0.09599046 -0.00497093 0.00597254 -0.00962897 -0.00687468
177 1 4.751674 32.472457 36.755936 0.05075219 0.02209001 0.02071919 -0.00006131 0.00005652 0.00006585
178 1 2.953660 9.301458 13.163383 0.00996718 -0.00902107 -0.02855928 0.00020680 0.00019819 -0.00032020
179 1 20.225216 35.502338 12.870505 0.03810930 0.03600900 -0.04990067 -0.00018380 -0.00005240 0.00016293
180 1 6.878212 7.005635 18.070030 0.02681903 -0.03216688 -0.05434899 0.45697091 -0.60412987 0.06603778
181 1 15.131670 7.312963 28.924840 -0.02057236 -0.01934786 0.03529657 -9846036.52516752 -43849546.03747288 -37116463.27580202
182 1 19.341521 15.066112 3.109613 0.03695082 -0.02845401 -0.04034153 -0.00008695 -0.00013598 0.00003297
183 1 10.592642 29.062080 14.898176 -0.05821600 0.04288535 -0.01403416 0.00013846 0.00006658 0.00013188
184 1 21.794614 31.718590 3.489236 -0.01535702 -0.03380012 -0.04178173 -0.00000854 -0.00029604 -0.00005803
185 1 29.761369 27.737748 31.490716 -0.01077979 0.00091385 -0.05555012 0.00010039 -0.00012254 0.00002264
186 1 20.532061 2.518621 12.047894 -0.02189626 -0.00690319 -0.06461279 0.00004303 -0.00008209 0.00007660
187 1 5.854954 12.818977 9.977946 0.02538778 -0.02750699 0.05260916 -0.00003896 0.00000816 0.00014034
188 1 11.885005 14.593620 5.280633 0.06434564 -0.01738996 0.01744053 0.00010516 -0.00002000 0.00000823
189 1 7.811498 17.610481 25.034323 0.07294087 0.04099208 -0.04988389 -0.00002401 -0.00000309 -0.00007921
190 1 25.376743 31.496701 35.012827 -0.00366688 -0.00185803 0.01022865 -0.00037141 0.00004060 -0.00023800
191 1 6.395962 12.108527 26.317923 0.00428951 0.02479256 0.04838567 -0.00000322 -0.00009867 0.00010080
192 1 31.734313 1.428895 17.342076 0.03056815 0.05113932 -0.01345115 0.00008544 0.00004221 0.00013616
193 1 28.160569 0.905992 10.887031 -0.04394193 -0.00739407 0.02132051 0.00007926 0.00005641 0.00006075
194 1 30.364660 6.804552 35.065590 0.03443672 -0.07598247 -0.01017566 -0.00005951 -0.00002139 -0.00003274
195 1 28.171599 13.474416 19.984628 0.00040701 0.01664900 0.08125428 0.00165823 -0.00004523 0.00026707
196 1 15.618829 16.033048 4.849341 -0.01160084 0.01268577 0.02964018 0.00002290 0.00004148 0.00017779
197 1 22.727279 10.591156 27.266337 0.02749510 0.03103454 0.09804652 0.00000228 -0.00009188 0.00052007
198 1 28.190840 13.647768 10.646608 0.00507803 -0.05882133 -0.01837621 0.00004637 -0.00004758 0.00002935
199 1 24.525736 21.878569 35.814140 -0.02424471 0.00686222 -0.05639419 -21.27841941 24.83352277 42.81564250
200 1 32.664887 24.616634 27.064719 -0.03409803 0.00874568 -0.00264130 -0.00010647 -0.00015867 0.00017136
201 1 18.183373 24.586180 20.327758 0.01970458 -0.00760274 0.08721737 3687.11410370 5617.00439284 3370.15314093
202 1 9.028004 36.309485 19.609734 -0.04139923 0.01538624 0.00508159 -2389.95429480 1555.98350324 -1468.06706364
203 1 15.608019 18.133261 28.409268 0.01509743 0.07980470 -0.01187833 -0.00033721 -0.00002062 -0.00008688
204 1 1.958640 11.097753 21.839798 0.01455805 0.03066468 0.00186554 0.00000271 0.00005477 0.00024267
205 1 11.408248 16.425138 2.433764 0.02099055 0.07003938 0.04768905 -0.00000907 -0.00011366 0.00002863
206 1 14.685351 6.275265 16.024231 0.00683642 -0.00764011 -0.02827883 0.46390624 0.46540977 0.22124794
207 1 31.663352 32.932065 0.024218 -0.02706630 0.01433962 -0.02590519 -24731.76372887 1407.39767537 -30793.55230382
208 1 16.958589 1.856071 25.376856 0.02845706 -0.02312739 -0.00589449 0.00009045 -0.00014291 -0.00003006
209 1 15.796045 26.812087 36.323020 -0.07535553 0.04566533 -0.03873101 298188.19944851 -61481.73428484 -1237156.95083963
210 1 15.797059 6.847999 36.058767 0.01864402 0.00469014 0.00431838 -5235141.32843584 95741575.53228313 157778548.56938145
211 1 29.398358 9.468903 36.298866 0.00449710 -0.05336185 -0.06222264 -6.21580650 -1.80851108 -1.16747754
212 1 24.401636 13.227527 5.444871 0.03501336 0.01222841 0.00295551 0.00004687 0.00042179 0.00060813
213 1 27.535219 14.977035 18.324500 -0.00625123 -0.04834347 -0.00940883 0.00222851 0.00056234 -0.00090421
214 1 27.300277 0.739623 4.831484 0.03206281 -0.01899263 0.01091141 0.03002636 -0.07876355 -0.06300207
215 1 33.170578 32.021774 35.372276 -0.04843109 -0.04184715 0.02651199 -0.40272372 0.24003180 0.38744552
216 1 30.520649 8.498826 7.083981 0.05053888 -0.03703794 -0.02425952 0.00010882 -0.00004345 0.00021557
217 1 28.812653 19.071429 34.464400 0.00616957 0.00401583 0.02771213 6502784.32366507 9585531.25295721 12013611.15653171
218 1 27.235564 26.127143 24.436055 0.00290259 0.00955289 -0.01184926 -0.00002239 0.00001586 -0.00002293
219 1 19.245355 32.017801 28.727167 -0.08373862 -0.01289182 -0.03422134 -0.34349900 0.77811762 0.66109204
220 1 10.920030 18.320614 22.128611 -0.01028461 -0.02509843 -0.03608937 0.00016838 0.00000089 -0.00013576
221 1 0.806092 27.026046 23.383370 -0.00772940 -0.02254874 -0.02525925 -31879.09738768 31150.41534013 -654.51602792
222 1 13.693973 9.532625 2.793639 -0.01122594 -0.03552239 -0.01165705 -0.00740708 -0.00324715 -0.00098918
223 1 21.294135 28.697405 32.548406 0.00640105 0.05982788 -0.01385539 0.00022516 -0.00006543 0.00004415
224 1 5.025938 11.194464 28.081583 0.01389034 0.04128992 -0.04764488 -0.00011363 -0.00001051 -0.00007782
225 1 19.953504 34.865570 31.522844 0.00933038 0.03573724 0.07230433 0.00033769 0.00106307 0.00087821
226 1 10.985285 25.205227 23.716374 0.04080390 0.02055411 -0.04218991 -0.01979281 0.01532558 0.01253298
227 1 11.876789 18.353852 30.961159 -0.00838665 -0.00548034 -0.05788433 -0.00008026 -0.00004707 0.00011268
228 1 6.909386 8.938668 26.232139 0.00043582 0.01774257 0.01437819 0.00009413 0.00006129 -0.00015073
229 1 21.705484 18.486335 9.465658 -0.00884078 0.00381238 0.00603781 -0.00002181 -0.00015578 0.00000843
230 1 18.422720 15.064118 24.041764 0.00002326 -0.01433606 -0.01541282 0.00020974 0.00000883 0.00008964
231 1 16.820145 15.297183 20.906262 0.01094315 0.02920254 0.03390449 -0.00020934 0.00022750 -0.00006027
232 1 31.373352 30.056754 35.705162 -0.03768952 0.02888334 -0.02395906 -1.14793670 1.89143559 0.77307382
233 1 26.930694 25.623051 7.352264 -0.02848814 -0.00138750 -0.02237935 0.00003270 0.00002393 -0.00015174
234 1 5.289546 5.475663 29.764704 0.00018534 -0.03212758 -0.06596652 0.00002958 0.00006646 -0.00010083
235 1 5.626083 20.468055 32.091778 0.01104757 0.03396626 -0.02647457 0.00005556 0.00011748 0.00011646
236 1 28.654635 4.602967 5.051492 -0.00186502 -0.04298099 -0.01807807 -0.00008449 -0.00001593 0.00009728
237 1 7.097028 30.055938 11.375553 0.06823881 0.01235867 0.00362798 -0.00008508 0.00002020 -0.00002378
238 1 16.683412 13.473718 9.084170 -0.04875946 0.05600992 0.03566977 -940.92896569 1685.17847691 8565.97853314
239 1 29.387925 33.560406 9.008226 -0.02435258 -0.02019446 0.03422819 0.00031144 -0.00002792 0.00021065
240 1 7.255113 12.594524 18.592972 -0.01033042 -0.01068844 -0.00031167 -0.00012657 -0.00001588 -0.00024178
241 1 0.611768 27.073707 14.626566 0.02610890 -0.03507330 0.03787116 -988298.33023833 391412.03930562 1182242.32112472
242 1 1.530694 8.622795 7.162765 0.02254909 0.02500448 -0.04598498 0.00270855 0.01002479 -0.00847191
243 1 32.138428 6.461334 34.578441 0.03075408 0.00365261 -0.01323432 0.00065977 -0.00076644 -0.00029024
244 1 17.571363 26.041569 30.310230 -0.05214458 0.03244422 -0.02186055 0.00004730 -0.00020255 -0.00014727
245 1 14.193118 31.289326 35.931719 0.00097930 0.01425437 0.04223410 -0.00005727 0.00063784 0.00019298
246 1 19.108151 4.482694 32.199950 0.01140969 0.02642414 0.01032537 0.00011290 -0.00002871 0.00000531
247 1 9.599293 4.210290 25.020018 0.03931596 0.00977579 0.00868724 0.00001377 0.00009937 -0.00000649
248 1 12.640496 25.293723 36.197509 0.02840429 0.02260318 -0.01055435 -0.00261082 -0.00102646 -0.00011858
249 1 23.105541 7.537067 5.365427 0.02806018 -0.00384877 -0.00145438 -0.00007901 -0.00027160 0.00032808
250 1 1.909112 2.835247 28.719364 0.05735332 0.01025153 -0.02290052 0.00005342 0.00089717 0.00071705
251 1 33.717057 14.815234 25.527621 0.04391024 0.04573206 0.00211390 -0.00001992 0.00002379 0.00014262
252 1 22.041914 12.905870 28.060938 0.01687697 -0.03564493 0.00534204 0.00002382 0.00002382 0.00062908
253 1 33.966424 11.482981 28.786765 -0.02669770 0.02487844 -0.03716357 -0.00005650 -0.00007725 0.00008260
254 1 8.366147 36.128656 27.968263 -0.02994276 0.01022261 0.01872408 0.00003215 0.00011408 0.00007737
255 1 34.668049 14.108156 10.808488 -0.01255803 0.04140058 -0.00700320 0.00008610 0.00001956 -0.00001470
256 1 16.965268 31.280104 11.950266 -0.00939484 -0.03738237 0.00049147 -0.00009311 0.00004155 0.00025753
257 1 14.198710 23.187723 6.280110 -0.03402526 0.04496427 0.01389139 1367.13948765 4339.28251021 5308.82713148
258 1 25.539059 10.673665 19.385388 0.01163682 0.02276619 -0.02674235 0.00085629 -0.00209112 -0.00008853
259 1 29.661281 20.644058 28.550050 -0.04064290 -0.05059497 -0.01647627 -2676.56276884 871.98921759 194.75823120
260 1 34.391448 5.411415 20.803545 -0.03789561 -0.01063226 -0.02000860 -0.00012394 -0.00009204 0.00002677
261 1 24.150866 30.743937 29.975946 0.03012709 -0.03825648 -0.03732114 0.00028156 -0.00017515 0.00002695
262 1 8.115168 22.663184 12.685487 -0.02096809 0.02767953 0.02434430 0.00002249 -0.00004102 -0.00002162
263 1 2.637644 26.108688 10.501796 0.01935364 -0.03849616 -0.01113620 0.00018966 -0.00012489 -0.00051629
264 1 16.228022 29.405052 34.549523 0.03094832 -0.01677028 0.07776982 -0.10274886 -0.29764163 -0.18795954
265 1 7.529970 27.277799 32.288912 0.00896883 0.02590679 0.03031122 0.00003564 -0.00005945 -0.00009783
266 1 27.992318 21.797192 33.261033 0.04155107 -0.03952152 0.01231044 0.00119616 -0.00103672 0.00023258
267 1 14.782741 0.284461 1.515115 -0.03279635 -0.03773415 -0.06687132 -0.00012747 -0.00000236 -0.00001338
268 1 28.907450 4.452105 18.240175 0.02349859 0.02408458 -0.02167889 0.00010721 0.00016811 -0.00084483
269 1 9.494105 7.407309 8.318740 0.01952124 -0.01643950 0.00256881 -0.00010484 0.00001585 0.00013352
270 1 9.758673 30.143992 12.995376 0.01090379 -0.01205948 0.02428184 -0.00015958 -0.00008635 0.00003113
271 1 21.279087 5.324974 9.078580 -0.04579578 -0.02084783 0.00262834 0.00020829 0.00012948 -0.00012157
272 1 6.833258 23.760427 31.063400 0.00837377 0.01041868 0.02918550 -0.00004926 0.00008119 -0.00000596
273 1 7.663346 7.089350 13.136605 -0.03129625 -0.00572525 0.02012197 -0.00000756 0.00020109 -0.00029188
274 1 34.637297 35.466253 21.215200 0.04088835 0.00516451 -0.02711449 66970.15411629 12298.21019983 -177991.58126929
275 1 5.982332 0.426798 14.208264 0.01796801 -0.01065738 -0.02079379 -0.00025456 -0.00016404 -0.00016952
276 1 31.163291 21.171920 11.068161 0.04853098 0.02386912 0.02150984 -9.22555365 -79.95666134 -31.74852079
277 1 6.378238 13.510816 16.480367 -0.00729677 0.03936315 0.00199005 0.00018141 -0.00001151 0.00012724
278 1 16.936043 21.547034 23.467557 -0.03114050 -0.02698605 0.02628514 -0.00047064 -0.00033977 0.00052808
279 1 21.817020 33.039092 20.291053 -0.00907318 -0.00729916 0.02257153 0.00015669 0.00011056 0.00005159
280 1 19.960088 0.858522 19.629065 -0.01051591 0.01116667 0.00975619 -0.00005253 0.00006723 0.00002516
281 1 22.919907 17.671512 18.456647 0.00002573 -0.01185274 0.04839967 -0.00044328 0.00143624 -0.00052149
282 1 16.052931 7.157675 20.975007 0.00113463 -0.04967434 0.05102405 -0.00069366 -0.00037671 0.00134207
283 1 29.115829 2.116227 26.283211 0.01751835 0.03819696 0.04480482 0.00008269 -0.00004192 0.00002046
284 1 3.878384 10.434274 10.046826 0.03401463 -0.00638906 0.02065590 0.00018854 0.00005511 0.00048281