ITEM: TIMESTEP
0
ITEM: NUMBER OF ATOMS
3130
ITEM: BOX BOUNDS pp pp pp
0.0 36.033777
0.0 36.033777
0.0 36.033777
ITEM: ATOMS id type x y z vx vy vz fx fy fz
1 1 28.095212 21.506766 16.065038 0.00807997 -0.02450909 0.03145115 0.00011508 -0.00000864 -0.00000544
2 1 3.602474 16.548472 12.024782 -0.02542736 -0.03501633 0.00373946 -0.00009170 -0.00015602 0.00018547
3 1 5.148031 23.453970 2.032722 -0.07817241 0.01988324 0.01226503 903.22239627 -1118.40089310 -1694.45301099
4 1 26.016343 33.819599 0.028062 -0.01147954 -0.00852881 -0.00388247 -0.00001000 -0.00002740 -0.00004090
5 1 35.753130 22.250191 22.040174 -0.02567666 0.00600563 -0.00811482 0.00003813 0.00008182 0.00004024
6 1 0.254626 0.831026 18.909613 0.00365897 -0.00506710 -0.01147059 -0.00001205 -0.00001572 0.00009368
7 1 14.408501 1.681540 35.088089 0.00906161 0.02541546 -0.01707496 0.00004634 0.00000727 -0.00000359
8 1 8.387631 3.264892 22.282784 0.01286793 0.01690125 -0.04177442 0.00003453 -0.00004683 0.00008215
9 1 13.781550 35.429523 16.819230 0.03177485 0.06691291 -0.00286646 -0.00010759 -0.00004115 0.00006111
10 1 30.986901 24.514050 16.233190 -0.00557036 -0.00693080 0.02019330 -0.00011329 -0.00015730 0.00000631
11 1 0.477987 33.951088 20.297402 0.01661974 -0.05175701 -0.02818189 -0.00016965 -0.00012988 0.00007566
12 1 13.888012 0.575324 8.319977 0.01650697 -0.00471873 -0.03794320 -0.00002048 0.00012855 -0.00012048
13 1 8.685058 24.620565 21.980484 0.04881553 -0.02602111 0.00116412 -0.00000940 0.00003996 -0.00011705
14 1 30.023160 6.246983 14.091391 -0.00558090 -0.03509843 0.00601807 0.00010318 0.00005107 -0.00016093
15 1 6.566655 27.218525 15.319972 0.01275839 -0.01521726 -0.01093904 -98.89384682 52.38551827 -62.75469640
16 1 7.492924 20.456387 1.128336 0.01953868 -0.06426714 -0.02749477 0.00093679 -0.00135887 -0.00019726
17 1 30.350702 16.206340 14.238756 0.00694475 -0.01713905 -0.01760403 -0.00003870 0.00015692 -0.00007523
18 1 33.391019 26.206357 11.766497 0.02933931 -0.02060713 0.06439859 0.00002155 0.00007715 -0.00000084
19 1 20.555251 18.767626 34.634659 -0.05708841 -0.07197396 0.02859887 -0.00002977 0.00007261 0.00018915
20 1 30.431745 26.928766 19.447146 -0.03201585 -0.03146668 0.03204130 0.00003006 -0.00005161 -0.00001898
21 1 21.142861 34.781795 21.873737 -0.01618015 0.02962139 -0.01986161 0.00025197 0.00001349 -0.00005944
22 1 9.945293 10.675853 5.955192 0.01179607 -0.01664069 -0.02992889 -0.00011451 -0.00018259 0.00003636
23 1 0.563439 15.256755 14.229073 0.05631039 0.03632750 -0.02364347 8.25610662 10.01915098 -3.92271800
24 1 10.575487 0.507349 7.165043 -0.00580466 0.04803354 -0.03215476 -0.00011705 0.00001329 0.00004815
25 1 25.632337 28.473009 21.835027 -0.03039405 0.01529485 0.07387746 -0.00005352 0.00016905 -0.00008371
26 1 33.378119 23.460764 32.969453 0.00175157 0.03415881 -0.03310550 0.00002835 0.00008483 -0.00000773
27 1 30.630101 16.195405 3.437987 0.01174794 -0.01170116 0.06073633 -0.00001885 -0.00014289 0.00013573
28 1 13.361982 24.100877 23.995698 0.05201828 0.07416777 -0.02262986 -3963.57160822 -4509.25705424 592.26924689
29 1 21.306693 9.899264 20.223721 0.00115504 0.01220720 -0.02136017 -0.00006283 -0.00001975 0.00013345
30 1 13.798302 35.014457 30.589572 0.00426428 0.02957637 -0.01790782 -0.00011172 0.00021279 -0.00007449
31 1 26.006641 8.503428 9.227109 -0.02288584 -0.02504310 -0.04372145 -3945877.64025840 -485103.24488391 3394585.70014834
32 1 1.456975 25.607868 3.995815 0.02778726 -0.02296107 -0.02639185 -0.00067864 0.00027040 0.00030693
33 1 15.830954 7.268705 32.277746 0.01721490 -0.00034542 -0.01709973 0.00000336 0.00003819 -0.00007180
34 1 17.129385 20.296946 25.062072 0.02637628 -0.01839851 -0.07083373 0.00009974 -0.00017610 -0.00006778
35 1 5.020639 21.779441 19.452514 0.04338112 -0.02694786 -0.02339336 1606.93558176 -218.61415451 79.74789151
36 1 7.317063 33.974575 21.579385 -0.02324964 0.00193930 -0.00892331 632.89009966 436.98544338 -818.90561026
37 1 25.035725 31.726582 22.497835 0.03214990 0.05352879 -0.02209982 0.00023174 -0.00010861 0.00012855
38 1 10.652798 3.801357 16.450665 -0.03052093 -0.01698165 0.01428610 0.00000547 -0.00006030 -0.00013206
39 1 7.871234 15.008427 31.827924 -0.00378616 -0.01628241 -0.04220219 3538.09471270 -1688.43420857 1416.91929368
40 1 11.687376 4.399290 12.838757 -0.07187293 -0.03269155 0.04114162 -2.71488882 4.15165431 2.19743861
41 1 32.676454 9.805953 23.338721 0.01418635 -0.00623219 0.02374584 -0.74195751 -0.68872949 1.37759529
42 1 0.018751 12.704388 10.982420 -0.04190520 0.00184654 -0.05812451 -0.00017370 -0.00107079 -0.00097452
43 1 5.933172 19.245259 17.470255 0.01125878 0.00844412 0.00921830 46.81435536 -15.52300830 -9.09668170
44 1 24.951086 9.707944 8.796765 0.03799201 0.02524935 -0.03933569 29.01736134 -33.11228178 11.83009451
45 1 6.064162 7.882901 20.110523 0.03848338 -0.00681516 -0.06410478 -2.44612257 4.63717018 3.73534601
46 1 14.551743 2.338313 9.149531 -0.00353870 0.02105632 -0.03298876 0.00018340 -0.00026654 -0.00031344
47 1 8.895877 25.090473 25.665800 0.04336860 -0.03004292 -0.01565379 -0.00041026 0.00010491 0.00016178
48 1 5.336131 35.952358 9.613128 -0.02162926 -0.05560675 -0.03231463 0.00019374 0.00007310 0.00008524
49 1 35.191126 14.811216 1.190943 -0.02316251 -0.00423338 -0.09766212 -0.00001660 0.00002201 -0.00004311
50 1 12.434220 22.858075 24.528389 0.02331524 0.02299378 0.03844244 7279722.94953751 15633207.57632069 -17130097.06711978
51 1 19.131578 16.135319 19.922826 -0.04853555 -0.00952816 0.03063248 0.00001606 -0.00000182 0.00029382
52 1 21.357102 2.913451 13.320046 0.03343271 0.04812152 0.00334214 -0.00006666 -0.00006757 0.00006941
53 1 8.725937 28.940159 16.946708 -0.00182128 -0.05069262 0.03464899 0.00069562 0.00053556 0.00042568
54 1 35.436450 14.371151 29.419124 -0.01497773 0.00110437 -0.00106821 0.00004916 0.00005043 -0.00003152
55 1 28.767390 5.430922 18.312321 -0.07791731 -0.02640318 0.01476841 0.00006084 -0.00019772 -0.00008436
56 1 25.072764 30.929910 11.745531 -0.00158089 0.01502682 0.02550485 4053.36162374 -4045.30397178 19322.48995283
57 1 7.936117 25.625404 29.169380 -0.02678664 -0.01676198 -0.00459395 -0.00007269 0.00008984 0.00017019
58 1 12.563752 3.465604 33.890606 0.02516814 -0.00761709 -0.05795342 0.12796260 8.77738839 5.95139445
59 1 14.326022 18.656537 30.185859 -0.00644848 0.02385919 0.04415476 0.00015013 -0.00004166 -0.00016070
60 1 24.347667 26.492614 7.533640 0.00912939 -0.04835143 -0.01322251 12317038.34354268 13127959.39985985 3963450.57800887
61 1 19.510416 25.071740 8.235521 0.01545743 0.02818494 0.01649912 -0.00038186 -0.00013721 0.00006519
62 1 6.304287 35.391235 18.616343 -0.00818682 0.02793441 -0.02084274 -0.00067916 0.00101159 -0.00215315
63 1 9.398660 35.898784 34.787706 0.00600812 0.02439662 0.01876260 -0.00031697 -0.00026872 0.00007140
64 1 20.117422 31.804721 6.799830 0.01949338 0.01867407 -0.03412245 0.37562089 0.03296707 0.55467950
65 1 10.048788 25.236538 30.508399 0.00057129 -0.02958507 -0.00941892 -0.00010778 -0.00006728 0.00014444
66 1 30.856599 14.575956 31.989710 -0.03803177 0.01122454 -0.06394220 -0.00010832 -0.00003191 0.00010153
67 1 30.662166 33.714463 28.298790 0.02008512 0.00049939 0.06189256 -0.00003527 0.00008287 -0.00005910
68 1 24.106174 20.924332 13.414754 -0.00665729 -0.00666694 0.02220827 -18856.08133920 -31256.30819597 -211339.62707740
69 1 33.876559 35.084786 10.230745 -0.00476659 0.00894252 0.03235583 0.70802589 -33.35866864 -66.46881863
70 1 11.003413 17.498498 16.158416 -0.00870441 0.03889143 -0.05463573 0.00032864 0.00015284 -0.00021960
71 1 35.834059 6.339251 0.651324 0.05217410 -0.05818343 0.04399753 -5398.06200563 7738.88935677 -3535.72061336
72 1 17.796856 6.443658 13.205255 -0.06073104 0.06444434 0.00523460 0.00014726 -0.00003410 0.00020293
73 1 26.815275 25.978189 11.100594 -0.03074469 0.06068735 -0.03542970 0.00070613 -0.00042541 0.00070754
74 1 19.549774 18.334493 22.929468 -0.00739765 0.08475225 0.01287004 -0.00012036 0.00015909 -0.00006603
75 1 9.025085 21.255275 35.273207 -0.06592256 -0.00889239 -0.01177095 0.00027369 -0.00014238 -0.00020343
76 1 17.539158 32.650162 15.652870 0.00613397 -0.00144609 0.01776091 -0.00019103 0.00005982 0.00012992
77 1 12.614647 23.245511 24.103860 -0.04971990 -0.01782769 0.01014678 -7276551.05343084 -15629091.30568696 17129750.57650403
78 1 31.139221 8.294445 17.987823 -0.02479861 0.03565986 -0.02414768 3.70354712 41.34775635 -5.92509526
79 1 20.611472 27.693904 1.571209 0.00466365 -0.00341509 -0.03301573 -0.00012509 -0.00000505 -0.00018012
80 1 35.837411 16.933876 10.073615 0.00196826 -0.04268771 -0.01443424 -0.00019964 0.00031999 -0.00094805
81 1 31.835627 26.943132 34.342779 0.00098506 -0.04644280 0.02028753 -1.52416564 -0.85452569 1.52832793
82 1 11.918183 19.918210 20.621859 0.00847208 0.01731027 0.00008034 -0.00012672 -0.00033553 -0.00040408
83 1 35.325050 2.715010 11.015418 -0.03744100 -0.00000237 0.02027436 321.69885529 355.23067926 122.07976370
84 1 6.879246 9.674163 17.486467 -0.03873032 -0.03614411 -0.00800711 0.00051984 0.00111820 -0.00142350
85 1 13.429316 14.222224 30.420188 -0.01208234 -0.00052594 -0.00949128 0.00007760 -0.00003254 -0.00009884
86 1 33.512019 2.537359 7.528131 0.00520607 0.03975557 0.01751811 -0.00089099 0.00070621 -0.00228000
87 1 24.183836 12.923398 9.158476 0.00182707 -0.03601023 -0.02349203 -0.00010185 0.00040204 -0.00003875
88 1 10.640435 11.622722 30.580778 0.02738839 -0.01524360 -0.03148876 0.00059192 -0.00053880 -0.00017660
89 1 4.922983 25.544741 19.920192 0.06826590 0.04960293 -0.00404947 -0.00028574 0.00188758 0.00066678
90 1 10.684380 15.126290 9.232104 -0.03522779 0.02353668 -0.01594586 -0.00005891 -0.00004949 0.00009640
91 1 22.035149 2.940147 0.186830 0.02891112 -0.01591284 0.05353796 -0.00010499 0.00002692 0.00000429
92 1 22.625407 7.000424 2.556269 -0.01687884 0.07694381 0.00634680 -0.00001045 -0.00005637 -0.00007807
93 1 14.297620 1.829382 31.948165 0.04504260 -0.01757381 -0.04266877 -0.00115838 0.00103965 0.00111010
94 1 0.995137 20.858689 15.799879 -0.07503998 0.04153819 0.00221304 -0.00026024 0.00015130 -0.00028065
95 1 24.215640 11.824580 5.586735 -0.04059367 0.04289175 0.03761379 -3.31709690 3.83463542 -14.56672800
96 1 35.379436 30.229943 31.003628 0.04498013 -0.04359402 0.04055579 0.00004774 0.00005088 0.00006140
97 1 9.017502 1.399362 10.927802 0.01249598 0.04645206 0.01765941 -0.00047901 -0.00042906 -0.00025332
98 1 19.353108 11.770478 29.831247 0.00562959 0.04099746 0.02771914 -0.00008872 0.00009900 0.00015253
99 1 9.784717 34.781669 16.476991 0.03519854 -0.01588011 -0.00560986 0.00021390 0.00008811 -0.00003038
100 1 30.341272 7.004247 14.822635 -0.05641491 -0.01822534 0.02571786 -0.00060823 -0.00101892 -0.00230778
101 1 25.206067 4.985385 4.783319 0.01835757 -0.03187206 0.04172501 -0.00018371 -0.00001160 -0.00016348
102 1 34.936075 25.749561 1.479818 0.09673806 -0.02937289 -0.00669899 -46.38191148 5.67669177 2.90709700
103 1 14.371023 15.621390 26.810667 -0.02022550 -0.00308740 0.00891237 -0.00004476 -0.00014611 0.00016829
104 1 9.039452 6.642239 2.914158 -0.02268985 -0.00901043 0.00283872 -12.70430812 -37.06076604 64.63532445
105 1 15.433788 24.809252 2.096935 0.01534501 0.04771681 -0.00047111 0.00004395 0.00001946 -0.00007923
106 1 32.978608 15.939622 8.640444 -0.01828103 0.02265752 0.01302084 -0.00007206 0.00020189 0.00021957
107 1 3.382609 6.589353 33.677673 -0.00627423 0.01578150 -0.01246691 0.00062841 0.00008171 -0.00045725
108 1 22.999300 18.618518 23.678203 -0.01725766 -0.06180007 -0.01066998 7998.64867311 -4703.31216853 -3607.65952363
109 1 15.698940 26.306074 1.719392 -0.05734905 -0.02080495 0.01885517 0.00021512 0.00018063 0.00007463
110 1 20.396459 5.716631 4.329986 -0.04897528 -0.00617718 0.00213039 -0.00012430 0.00005752 -0.00003976
111 1 12.319216 3.307867 3.392832 -0.00776339 -0.01566169 0.01058752 0.00020966 -0.00041860 0.00018736
112 1 11.221398 35.295464 6.317812 0.01510088 0.00004966 -0.01385343 11800.35207039 1014832.37293146 -46693.45271152
113 1 0.618379 27.506904 29.076122 0.02813682 -0.04264892 0.02236596 0.00002062 -0.00000542 -0.00021387
114 1 12.478653 16.743953 23.413800 0.01365604 0.00647594 -0.00032198 0.00014944 -0.00021929 -0.00011448
115 1 1.731745 34.201306 31.950443 -0.06149589 0.04514173 0.02728872 -0.00003286 -0.00001083 0.00014590
116 1 9.400983 0.551480 33.635236 -0.03128176 0.02469018 0.00614447 58.85014546 -80.39785474 -11.54211447
117 1 18.054360 19.435807 24.645798 -0.01896975 0.03877864 -0.01401867 -0.00023185 0.00001387 -0.00011743
118 1 22.191444 34.011980 34.024952 0.04412571 0.01738444 0.03112455 -0.00002499 0.00011623 0.00039423
119 1 31.248453 22.932025 28.861228 0.01884231 0.01733402 0.00700318 -0.00012475 0.00001278 -0.00009746
120 1 24.400933 20.660580 4.630353 -0.02364927 0.00203446 0.02981757 0.00020533 -0.00019694 0.00003185
121 1 29.230751 29.570740 22.554971 0.02340331 0.01630981 -0.06819172 -31922.23595746 65238.50169045 28767.80178133
122 1 29.563078 23.475457 7.447618 -0.00693790 -0.01035651 -0.03589785 0.00020896 -0.00016672 0.00006466
123 1 9.871854 7.732457 13.594070 0.02940651 -0.06589959 0.02722249 -0.00087850 0.00166598 0.00044595
124 1 1.403989 22.278023 12.127320 0.04325082 -0.00682784 -0.00241884 -0.00015120 0.00010563 -0.00008900
125 1 23.628163 13.887296 24.561115 0.03148249 -0.02484783 0.02150038 0.00017519 -0.00046011 0.00007115
126 1 12.273990 9.393809 17.874103 -0.02986389 -0.03961318 0.00963096 -0.00000765 0.00012022 0.00013507
127 1 24.967457 12.551884 33.750971 -0.00086834 -0.05599812 0.04605145 -0.00005164 -0.00011171 0.00005218
128 1 1.412031 15.060174 34.865582 -0.01349408 0.01661653 0.05222953 -0.00017786 -0.00013029 -0.00009075
129 1 19.745497 15.259258 20.485933 0.00805656 0.04143044 -0.02808209 -0.00014525 -0.00024070 -0.00029562
130 1 20.752738 26.364032 4.601143 0.04623609 -0.02687202 -0.01858383 -0.00062250 -0.00007970 -0.00060485
131 1 9.009037 20.919194 31.245487 -0.04733197 0.00873401 0.02052915 -0.00002116 0.00030210 0.00000120
132 1 20.246179 8.597546 24.497375 0.02495045 -0.04658102 0.01220099 0.00003425 -0.00009460 0.00021635
133 1 26.661707 8.584548 13.610999 0.01340510 0.02000347 -0.02514308 0.00001469 -0.00000219 0.00095893
134 1 19.253837 17.892975 14.039411 -0.08151769 0.02298744 -0.00474501 -0.00015431 -0.00008026 -0.00001064
135 1 10.724920 3.602833 1.927277 0.00911850 -0.00307833 0.00763024 0.00080984 -0.00179706 0.00028249
136 1 34.539871 30.525767 12.788575 0.02398442 -0.06042386 0.03712657 -0.00002735 -0.00033072 0.00008166
137 1 34.477150 24.386576 17.387052 -0.00592656 0.05294182 -0.01494978 -0.00016617 -0.00014872 0.00002154
138 1 17.765577 3.001052 3.304447 -0.02217786 -0.00482667 0.01626860 0.00011093 0.00008558 -0.00022033
139 1 21.708222 19.952012 7.665390 -0.00892690 0.01862846 -0.01259632 -0.00007213 -0.00016023 -0.00006356
140 1 34.094963 28.153048 4.088558 0.00113532 0.07277306 0.01162477 -0.00056294 0.00165104 0.00178566
141 1 33.544892 35.105843 35.887164 0.01423527 -0.04791455 0.04406587 -0.00019626 -0.00011786 -0.00000174
142 1 2.013249 26.558175 19.671407 0.03470069 -0.02324678 0.03405842 114533.10060347 -52228.00125538 -470242.50870817
143 1 25.433774 34.904188 24.792320 0.01073109 0.00151028 0.04200517 -0.00001925 -0.00010543 -0.00015221
144 1 30.158970 31.236554 30.213629 -0.01666919 -0.02350402 0.00675370 -0.00006897 0.00002306 -0.00013574
145 1 15.353685 8.020269 14.292855 0.01718753 0.03144203 -0.00491171 0.00011026 0.00017978 -0.00000038
146 1 32.138414 5.282725 18.497081 -0.02764989 0.08227465 -0.03535566 -133.71899035 -21.38160819 54.83957419
147 1 8.404088 20.946630 31.102141 0.00179344 0.02537009 0.03745528 0.00008973 0.00019894 0.00012858
148 1 31.722695 8.528662 32.707633 -0.01845428 -0.06100616 -0.01920608 0.00001313 0.00006150 -0.00011173
149 1 21.327987 12.619686 25.518443 0.02802575 0.02074289 0.02180447 -0.00005688 -0.00015277 0.00002039
150 1 17.356281 13.620321 25.406853 0.02315616 0.04360372 -0.02524589 0.00005451 -0.00008605 0.00000094
151 1 8.962471 11.900246 15.654941 -0.03897726 0.01205470 -0.03411694 -0.00004213 0.00005643 -0.00009431
152 1 9.141127 14.600962 20.592332 -0.04102772 0.03982526 0.00814622 -0.00002557 -0.00009541 0.00008783
153 1 26.700087 27.644928 29.648244 0.00092711 0.00160328 -0.00345356 -0.00004712 -0.00004361 0.00001628
154 1 26.816757 24.540423 8.558255 0.03960663 -0.04928264 -0.05062997 0.00157953 -0.00113660 0.00050476
155 1 14.421543 17.213872 2.986887 -0.03046802 0.00940875 0.05874236 -0.00001870 -0.00014048 -0.00003469
156 1 19.039171 15.722828 28.903026 0.02827829 0.01927693 -0.00259871 -0.00018756 0.00006030 0.00010250
157 1 35.237455 20.034962 11.627609 -0.04335792 0.01675676 0.06592101 0.00003167 0.00016714 -0.00017741
158 1 1.563894 33.318392 33.119211 -0.00781101 -0.01824322 -0.00765435 -0.00008003 0.00015302 0.00014357
159 1 9.116191 25.058289 2.718192 0.01951473 0.00363548 0.02961008 0.00095629 0.00033011 0.00029994
160 1 5.989370 7.812451 10.611729 -0.00108843 -0.00784205 0.00745141 -0.00010325 0.00004313 0.00012198
161 1 35.883566 25.112842 13.844243 -0.01755923 0.05664109 0.02678253 -0.00014286 0.00005482 -0.00002749
162 1 26.560523 32.980071 34.545669 -0.03578204 -0.02426555 0.01839496 -0.00000395 -0.00009934 -0.00007244
163 1 2.085055 14.216111 3.846824 0.00596479 0.00984314 -0.00625145 0.00002895 -0.00014233 0.00001307
164 1 12.095100 6.114208 23.308390 0.01481044 -0.00548611 0.01833127 0.00008806 0.00008856 -0.00012183
165 1 13.990776 8.265959 9.582748 0.02515283 0.05228019 -0.01674731 0.00021687 0.00031264 -0.00007949
166 1 12.984595 9.366975 16.331980 -0.00036178 -0.03966327 0.05942298 -0.00008380 0.00004382 0.00004912
167 1 1.164466 10.080936 14.817331 -0.06427852 0.05475728 0.00304132 0.00009086 -0.00026916 0.00001864
168 1 21.720508 9.763627 4.799163 0.01361483 -0.00539055 0.00101195 -0.00174964 -0.00134427 -0.00063831
169 1 2.745787 33.890914 15.013079 0.01913512 -0.05325331 -0.02121891 0.00000325 -0.00007015 0.00024056
170 1 20.941484 33.121403 2.981738 -0.02749651 0.01455768 0.00014207 0.00042207 0.00049600 -0.00114474
171 1 31.589425 19.875794 5.939601 0.02011163 0.00536146 0.03444441 0.00007985 0.00001813 -0.00015056
172 1 14.819075 28.019947 17.309548 -0.02408708 0.00189228 0.03609652 -0.00002285 -0.00002445 -0.00012876
173 1 35.503578 13.575328 27.010137 0.02958769 -0.04814474 -0.03322495 -0.00008938 0.00012825 0.00010938
174 1 14.160894 29.877919 20.506155 -0.00266132 -0.00764113 -0.00212886 -0.00011071 -0.00003098 0.00008978
175 1 2.288571 1.326831 4.823197 0.02590648 0.00941596 0.01131318 -0.00003726 -0.00001254 -0.00005134
176 1 0.492653 2.715472 24.925082 0.02182046 0.03495153 -0.09943666 1626224.22007228 3304163.92603524 -2182090.52737756
177 1 19.254515 27.022117 32.904811 -0.01258007 -0.02873005 0.01546586 0.00001687 0.00002302 0.00000791
178 1 21.085148 26.164877 27.280495 -0.01503596 0.00246839 0.02772707 0.00003446 0.00021918 0.00025613
179 1 13.615382 8.687197 7.388558 -0.01961998 0.01180531 0.05055852 -0.00001687 -0.00019441 0.00007048
180 1 9.060421 9.899624 7.467195 0.02705914 -0.05159810 -0.00949287 0.00001936 0.00021957 0.00018709
181 1 31.645608 27.277538 1.689857 0.01157757 0.01798651 -0.00821094 -0.00231606 0.00137126 0.00274044
182 1 9.681284 0.799400 17.950773 -0.02081748 0.00220487 -0.03536510 -0.00001024 0.00006196 -0.00018748
183 1 17.159670 29.957455 11.090376 0.03578320 0.06080323 0.01284257 -0.00012002 -0.00009552 0.00020679
184 1 29.417462 34.879751 3.185682 -0.00756310 0.03061508 0.02511707 -1.65894348 0.41278143 0.15574297
185 1 28.532188 21.258339 17.297869 -0.00896556 -0.00155674 -0.01983306 0.00001731 -0.00000700 0.00008243
186 1 15.153493 28.274561 23.038605 0.00535852 0.00972592 -0.02538399 0.00035245 0.00072640 0.00004369
187 1 29.008800 32.543944 22.242343 -0.03496787 -0.04314595 0.01355322 -0.47579325 -4.79373801 1.58235128
188 1 35.329775 21.911702 22.940700 -0.00037362 -0.00271934 0.01511477 -0.00014414 -0.00004852 -0.00002004
189 1 19.992102 3.279149 26.174829 -0.02931554 -0.03482393 0.00784433 0.00000821 -0.00007802 0.00010468
190 1 19.726558 16.248007 32.807719 -0.05624784 -0.00842685 0.08025335 0.00001473 -0.00009354 0.00008406
191 1 10.736604 18.867368 25.138672 -0.04387877 -0.01398298 -0.06907478 -0.00041338 -0.00089887 0.00004452
192 1 28.699886 16.552001 30.343734 -0.00760505 0.06398725 0.01519258 0.00003688 0.00007733 -0.00004234
193 1 27.707011 2.386732 1.652555 -0.01997118 0.07097884 -0.05669275 -0.00061483 0.00100795 -0.00031543
194 1 22.369974 12.518617 7.535772 0.01477042 0.00211214 -0.00803770 0.02057526 -0.00765464 -0.02191025
195 1 20.886977 12.307813 19.359630 0.02626118 -0.03845930 0.01017213 -0.05729625 0.56824409 -0.44990563
196 1 16.579831 21.071332 14.424339 0.00604096 -0.02834105 0.06344905 -0.00003396 -0.00007487 0.00011357
197 1 25.139598 6.488504 25.097579 -0.00591663 -0.00451141 -0.03343861 -78615.29012312 -16606.17385991 84136.31601895
198 1 14.833708 31.504966 18.565901 -0.00531478 0.07596835 -0.00822275 -0.00024243 -0.00014375 -0.00004805
199 1 35.064841 21.690006 8.066127 0.01687755 0.03092897 -0.00590248 193.64273898 849.53953474 827.92138760
200 1 29.612221 12.434631 12.526033 -0.01332727 0.01536654 -0.00785008 75.69750425 -52.58879267 -159.71373147
201 1 1.146043 19.772285 19.257297 -0.01079759 0.03058218 -0.00225889 -0.00114960 -0.00042167 0.00019453
202 1 12.827718 32.222026 4.639291 0.03947645 -0.00299111 -0.04285897 0.00076406 -0.00150065 -0.00074248
203 1 11.894732 11.587842 3.325578 -0.11146869 -0.05980976 -0.05420710 0.00001833 0.00016876 -0.00017676
204 1 17.337486 24.783481 18.436935 0.00867262 -0.03160527 -0.06423438 0.00009786 0.00020021 -0.00016304
205 1 5.656499 13.595038 0.093509 -0.00425942 -0.03520057 0.01506834 -0.00018323 -0.00002305 0.00034110
206 1 31.288169 3.045467 21.522185 0.01426041 0.01770350 -0.08324145 -0.00046243 -0.00122575 0.00144738
207 1 35.538565 19.335388 33.296715 0.00147752 -0.00395020 -0.03974992 -0.00000699 -0.00001376 -0.00012993
208 1 8.508171 27.384064 19.143512 -0.06954782 -0.00353639 0.03462426 0.00057702 0.00023608 0.00089774
209 1 25.962915 2.246395 5.323598 -0.08400535 -0.02708860 0.00427990 -0.00030861 0.00014202 0.00002747
210 1 4.796706 24.761169 30.428387 0.03660270 -0.01016396 0.06283106 -0.00013476 0.00001736 -0.00009115
211 1 27.011504 1.098027 31.249031 -0.05841577 -0.06562722 0.03311446 -0.00006247 0.00001534 -0.00015332
212 1 12.761242 14.311313 3.778832 -0.07645218 0.01501736 -0.00958351 -0.00017416 0.00006709 -0.00019308
213 1 26.571495 6.568377 20.321792 -0.02931680 -0.01388292 -0.04194388 -0.00031601 -0.00023604 -0.00032208
214 1 30.293956 3.214369 19.290162 -0.01035797 0.00056679 -0.01354305 0.00913299 0.01000783 -0.00362908
215 1 8.403668 12.356950 17.078927 -0.01903268 0.00826912 0.05399922 0.00017374 -0.00001684 -0.00019236
216 1 12.795749 23.379538 17.281155 -0.00866174 0.02668089 -0.03143751 2.66564986 -2.58441757 5.72293468
217 1 21.050914 26.550497 20.097561 -0.04340840 0.01475000 -0.00759876 0.00000749 0.00002735 -0.00014821
218 1 21.135087 20.339573 13.648608 0.03675164 0.04312669 0.02730218 0.00326347 0.00064634 -0.00034605
219 1 12.159484 32.417694 21.892509 0.02659524 -0.11145462 0.01446389 -356.19895265 15.78336746 341.59487563
220 1 8.804967 17.953747 11.903704 0.02807642 -0.04138132 0.00028544 0.00024222 -0.00018985 -0.00012025
221 1 33.644443 0.271492 8.119592 -0.03392834 0.03343319 -0.03110631 0.02084212 -0.11395026 0.19458470
222 1 13.165186 17.577630 30.658169 -0.02579818 -0.01509929 0.07319141 0.00013869 0.00007869 -0.00009161
223 1 3.166923 29.038356 2.005405 0.03269007 0.05247098 -0.05899538 -0.00007340 0.00042172 -0.00000533
224 1 30.351756 1.860621 0.657346 -0.04130037 0.04355477 -0.05727220 0.00021180 0.00114320 -0.00093576
225 1 25.114154 35.934884 32.308254 -0.02185529 0.06687679 -0.03134926 -0.00003227 0.00001485 -0.00011550
226 1 20.755399 33.057229 0.190979 -0.05925170 0.00154473 -0.05790936 0.00008104 -0.00008978 -0.00011281
227 1 35.135353 17.683532 26.048677 0.04025770 -0.02911696 -0.03563694 0.00006488 0.00012040 0.00015858
228 1 29.578739 25.888729 19.279394 0.00095604 -0.01315962 0.00821095 0.00013976 -0.00039674 -0.00046567
229 1 17.174400 30.217297 7.389719 0.01696874 -0.00707012 -0.03779127 -0.00199063 -0.00103136 0.00036513
230 1 34.880482 25.618303 7.188988 0.02376931 -0.02256220 -0.02827846 0.00001912 0.00148293 -0.00001909
231 1 26.529767 19.092137 25.484172 0.00464190 -0.06275491 0.01271834 0.00139162 0.00039146 0.00081681
232 1 27.665995 3.145395 18.236837 0.00636971 0.03650182 -0.01628178 -0.00027053 -0.00029782 0.00001195
233 1 33.583997 11.553949 21.399851 0.04310743 0.01723355 -0.00087167 -0.01071574 -0.02042443 0.02326000
234 1 13.304769 16.368991 19.768242 0.05911174 0.00309804 -0.01686666 14.72095080 -19.59521389 42.27369771
235 1 19.779732 7.269111 24.667699 0.00402951 -0.01753700 0.01215773 -0.00028696 0.00006917 -0.00003657
236 1 3.166220 5.002381 0.097684 0.04297258 -0.00026044 0.00293297 0.00212666 -0.00085552 -0.00041447
237 1 4.205000 17.049965 21.840140 0.02595987 0.03863047 -0.01472787 -0.00014235 -0.00040670 0.00035377
238 1 28.621249 3.844777 30.654924 0.00560748 0.02610405 0.01073600 15127.53656064 12367.53998936 5840.07231110
239 1 26.880280 14.720457 33.617282 -0.06058875 0.03197602 0.01701354 -0.00014573 0.00004235 0.00005304
240 1 35.706932 7.386990 13.665038 0.01932593 -0.03879026 0.00495847 0.00009292 0.00041619 -0.00021982
241 1 33.383472 26.001849 1.733032 0.02744081 -0.02865237 -0.02019131 75.16883697 -12.21472079 -12.25742948
242 1 28.160919 29.833837 27.043419 0.02799831 -0.02170622 -0.00678447 34.23151646 -285.96073091 -280.72293643
243 1 28.810343 29.732647 6.716876 -0.03366447 0.05921724 0.01694005 0.00012598 0.00005814 -0.00006007
244 1 8.492864 22.836715 32.713846 -0.00831005 -0.01439402 -0.03996858 -0.00006427 0.00008144 -0.00012434
245 1 11.393757 21.198912 24.610423 -0.00358244 0.02163969 -0.02634977 2.64786713 4.22278688 -0.20849266
246 1 16.285415 25.720278 32.418416 0.00343410 -0.01195389 0.04490628 0.00010285 0.00001532 0.00013824
247 1 22.488736 19.450350 15.809628 -0.02071693 0.02528713 0.04535877 -0.00085997 -0.00063267 0.00143951
248 1 20.809012 12.805051 14.106579 -0.01227109 -0.01915116 0.03002293 0.00003131 0.00011357 -0.00022018
249 1 19.164834 2.400538 8.252650 -0.05795755 0.01401071 -0.05125789 -0.00014894 0.00010540 0.00004091
250 1 19.560911 15.549589 11.992610 0.03977489 -0.00820272 -0.00295374 -0.00004812 -0.00011459 0.00006247
251 1 26.324445 24.997266 6.007939 -0.02356565 -0.05149820 0.04118863 -0.00789105 0.00610905 0.00602677
252 1 31.660326 17.851985 26.717637 -0.00556588 0.10440706 -0.02636173 -0.00012233 -0.00005140 -0.00002781
253 1 20.652790 35.950633 27.111926 -0.02104216 -0.02919457 -0.00573192 0.00024124 -0.00008846 -0.00001162
254 1 25.475176 28.054888 5.157442 0.05125451 0.03286790 -0.04895524 -0.00090622 -0.00123741 0.00179445
255 1 7.370514 25.730426 17.800019 0.03917971 0.02221669 0.01566342 -0.00117365 0.00294228 -0.00437198
256 1 27.192360 3.708453 19.331449 -0.02226386 -0.01984529 0.00445990 -0.00038867 -0.00022272 0.00013324
257 1 13.650372 16.467444 21.762883 -0.01799883 0.04271048 -0.01939123 -0.54354123 -0.15499865 -3.13696164
258 1 18.099346 19.453218 17.525297 -0.06334391 -0.04234687 -0.04028091 0.00009816 -0.00010503 0.00012363
259 1 14.736200 27.813823 0.439723 -0.00856883 0.00703037 0.00175056 0.00008676 0.00014302 0.00003921
260 1 21.564151 20.377402 25.806637 0.01499708 -0.00820870 -0.00705773 0.00013825 -0.00027250 -0.00060191
261 1 21.585291 29.792685 34.559087 0.05700210 0.03921998 0.01328530 -0.00007822 0.00001563 0.00013782
262 1 12.342443 8.192315 15.263795 0.02982667 -0.06267528 -0.02676380 0.00022950 0.00073054 0.00036688
263 1 10.375192 22.158981 32.857486 -0.01406306 -0.02638074 -0.05029527 -0.00000719 0.00005123 -0.00002807
264 1 5.012882 3.632010 9.225207 0.01368367 0.04508952 -0.00041680 0.00017519 0.00009775 0.00001498
265 1 26.163967 21.366693 3.683108 0.02109058 -0.00138397 -0.01437006 -0.00023656 -0.00003246 -0.00004488
266 1 33.106052 28.469734 0.829591 0.02990886 -0.04647054 -0.06063148 -0.00077161 0.00233157 0.00032762
267 1 23.471221 27.790931 13.492321 -0.04692962 0.02777408 0.00283768 -0.00069005 -0.00137487 0.00093861
268 1 2.483503 2.786170 3.756412 0.01225181 0.05456380 -0.03785280 0.00003956 -0.00002695 0.00022408
269 1 30.284214 32.815464 4.425336 0.03918135 -0.01289562 -0.01784259 -0.03972053 0.09459714 -0.05676984
270 1 8.500585 5.964329 6.713845 0.00264275 0.00773547 -0.00685063 -0.00024522 -0.00025762 0.00186883
271 1 30.177956 11.968490 11.222513 0.01985843 0.00277364 -0.00648586 -66.80457696 55.04411573 153.92587524
272 1 8.193923 21.904731 13.667817 -0.01354507 0.00775533 -0.04414299 0.00005403 -0.00014453 -0.00042362
273 1 26.818126 7.407817 28.387045 -0.03496095 -0.01195611 0.01772917 0.00067996 0.00105350 0.00136070
274 1 21.754367 4.117482 14.936166 0.06972416 -0.00518414 -0.05773002 0.00011265 0.00001406 0.00003430
275 1 31.115820 33.257743 16.780934 -0.02571311 0.02143905 -0.03157108 0.00016294 0.00001628 0.00007566
276 1 17.326373 33.095393 21.154286 -0.04248640 0.02126911 0.01512629 -2.10137192 -1.19044315 3.37855602
277 1 1.183590 32.889811 8.944536 -0.04791360 -0.02912133 0.04049914 0.00106039 -0.00077681 -0.00029087
278 1 20.814261 5.964070 1.220794 0.02774989 -0.03896013 -0.06471457 -0.00004782 0.00002909 -0.00006505
279 1 11.223555 28.124208 10.002514 0.00873705 -0.00963347 0.00591353 0.00011784 -0.00006088 0.00014080
280 1 7.930934 7.663692 18.563654 0.02065066 -0.03111514 -0.01406117 -0.19089881 0.02227928 0.15820596
281 1 35.152438 16.539107 20.081817 -0.02925361 -0.02808798 0.01837616 -0.00010774 0.00001728 0.00006411
282 1 31.011822 19.280583 6.646894 0.00468771 -0.05085507 0.02359346 -67.18012073 56.84824474 135.19757183
283 1 10.795572 11.168198 14.316872 -0.01139060 0.02509222 -0.03301759 0.00008942 0.00005289 0.00010828
284 1 15.378816 28.819167 12.589733 -0.03012008 0.00819023 -0.03567667 -0.00009822 -0.00001626 0.00002553