ITEM: TIMESTEP
0
ITEM: NUMBER OF ATOMS
4015
ITEM: BOX BOUNDS pp pp pp
0.0 39.741548
0.0 39.741548
0.0 39.741548
ITEM: ATOMS id type x y z vx vy vz fx fy fz
1 1 26.165223 15.251695 0.739639 0.03797627 0.01649668 -0.04550609 -177.37645701 115.67967418 80.25293351
2 1 6.215757 5.070073 13.856682 -0.02740649 -0.00566069 -0.02303241 -11981.90021994 -18814.30995297 5969.18426574
3 1 26.313452 27.232501 18.170985 -0.01045819 0.01965622 0.00707272 0.00025257 -0.00002999 0.00001492
4 1 4.738401 13.187157 33.517818 0.00471006 0.03909788 0.05504436 -0.00008434 0.00017515 0.00014576
5 1 19.362303 4.805465 19.183916 0.01882253 0.01607281 0.00110678 129.74768243 -581.03172472 -326.93606338
6 1 31.698071 20.306949 34.703310 0.03927077 0.01321846 -0.04288571 0.00004020 -0.00010001 -0.00002291
7 1 28.636418 26.042008 23.838668 -0.07649432 0.05781715 0.00928982 -0.00008791 0.00008028 -0.00001882
8 1 32.437764 26.641611 30.200603 -0.01484979 0.00141361 -0.05721784 -0.00001209 -0.00001123 -0.00000065
9 1 30.022303 26.359419 38.359011 -0.02309951 -0.01787570 -0.00450514 -0.00007988 0.00000364 -0.00006223
10 1 23.093707 6.388603 22.170866 0.01129696 0.01251154 -0.00707459 0.00003458 0.00022387 0.00025698
11 1 8.124177 16.501489 32.394808 -0.00433614 0.05689842 -0.03217687 0.00006699 -0.00016108 0.00007691
12 1 39.741308 36.095295 20.487343 0.00991266 -0.03137226 -0.02985852 0.00004379 0.00016109 0.00008699
13 1 10.160734 17.968111 36.938359 -0.01737524 -0.00422254 0.01815609 -0.00008716 -0.00009075 -0.00004241
14 1 28.058371 28.159668 20.879689 0.01865459 -0.05780180 -0.01209824 -0.00004879 0.00001336 -0.00005681
15 1 30.066880 35.560045 32.573039 0.08004175 0.03164208 0.03126601 0.00003492 -0.00012399 0.00012852
16 1 18.351551 23.172201 33.012141 -0.01225384 -0.06485237 -0.00378022 -0.00000316 0.00000021 0.00013940
17 1 39.030977 31.714415 32.042137 -0.01654097 -0.01102532 -0.01923616 0.00018691 -0.00005351 0.00003922
18 1 2.966965 32.152709 9.782721 0.02160614 -0.07567423 0.01529396 0.00013652 0.00006128 0.00000561
19 1 32.142770 33.515266 33.072662 0.01822060 -0.00281601 -0.00617468 0.00003770 0.00009545 0.00009657
20 1 25.699497 10.315809 19.942521 0.01320524 -0.00227878 -0.01313271 28.54845369 7.90943976 9.50409142
21 1 9.531467 30.858491 28.368052 -0.01568918 -0.03259391 -0.01460299 -0.00003067 -0.00007330 0.00008748
22 1 19.529274 33.989569 32.369425 -0.05449992 0.02482096 -0.02457633 9.84787721 -7.90678579 1.40632997
23 1 3.574914 28.283015 8.318830 0.00970019 0.01732552 0.01987078 0.00001988 0.00001147 0.00013270
24 1 10.562706 23.155272 37.672420 0.03903944 -0.04959028 0.02943942 0.00008136 0.00027311 0.00012336
25 1 35.694500 2.938159 38.572388 0.05106706 -0.02396350 -0.01785794 -0.00002221 0.00008227 -0.00007214
26 1 1.201996 10.564652 7.691877 -0.01439155 -0.01447771 0.02559870 -0.00006502 0.00010783 0.00000229
27 1 29.879510 38.496574 31.260199 -0.02744688 -0.05369893 -0.06999389 -0.00023628 -0.00002030 0.00001866
28 1 26.779144 5.094629 17.673913 0.01446305 -0.00781431 -0.02673110 0.00021804 0.00015825 0.00000591
29 1 33.394893 2.273148 1.780557 0.06699019 0.03044506 0.01661926 0.00000755 0.00015145 -0.00007246
30 1 17.995177 14.002670 10.137682 0.07781420 0.02893718 -0.01061041 0.00008222 -0.00018289 -0.00015108
31 1 8.760787 12.933358 6.344126 0.02914627 0.05904618 -0.04990892 -0.00015150 0.00006468 0.00007292
32 1 22.857678 37.176641 21.524512 0.01788078 -0.07633411 0.02671469 8.85306356 -7.04963701 -27.74329464
33 1 3.442662 20.005858 3.758713 0.02318579 0.05220754 -0.03201852 -0.00001348 0.00006508 0.00005881
34 1 29.940793 1.467842 12.567891 -0.01423360 -0.04293819 -0.01822985 -0.00011681 -0.00004300 0.00000007
35 1 21.258530 23.641583 27.144804 0.01349710 -0.01881221 -0.00647170 0.00002267 -0.00000678 0.00003767
36 1 8.813248 27.435169 37.072143 -0.00401117 0.01128362 0.01042891 -0.00005410 -0.00003522 -0.00020437
37 1 5.662111 6.446314 4.980529 -0.00693072 -0.01012630 0.04413030 0.00001202 0.00008741 0.00015606
38 1 4.472585 11.970271 20.438669 -0.02145527 0.05621300 0.02422054 -0.00021783 0.00003772 0.00003298
39 1 9.493823 0.508709 9.412641 -0.01917666 0.00434965 0.02420768 0.00006332 -0.00026081 -0.00007685
40 1 23.615759 28.462092 20.587998 0.00282934 -0.00828122 0.05172267 0.00005567 -0.00010288 0.00000107
41 1 26.373118 38.691154 29.072333 0.03570678 -0.02643448 0.01113884 0.00010160 -0.00000453 0.00018388
42 1 18.401812 33.904348 6.616733 0.03591025 0.01599429 -0.01375940 -0.00003045 0.00000864 -0.00010326
43 1 14.625366 10.289134 38.679833 0.00291641 0.00323241 -0.06243598 0.00003494 0.00008203 -0.00005319
44 1 9.251228 38.564381 13.210468 0.02833971 0.00521692 -0.03948265 116963.02467877 -88225.87326508 107500.23691735
45 1 22.951709 28.456980 2.744962 -0.01469660 0.01905795 0.02813506 -0.00027720 0.00000746 -0.00013756
46 1 2.988697 27.046596 24.291892 0.00505372 -0.05118718 -0.06082257 35641.89629494 -49658.14999005 -75630.78846016
47 1 7.121393 38.511996 34.164630 -0.03750888 0.00534111 -0.00245842 -0.00000299 -0.00001709 -0.00009601
48 1 5.257988 26.192452 19.898799 0.00904113 -0.01616442 0.03255958 -4590.44353001 2122.54372400 -3437.80284848
49 1 31.912565 37.817396 39.124256 -0.01355645 0.02891373 0.08358414 0.00002840 0.00013683 0.00004094
50 1 24.580475 10.632280 7.751662 0.01643296 0.02050602 -0.03544146 9122.96532239 69124.25871527 27888.00397232
51 1 4.120577 3.984920 35.179968 -0.01089261 0.00457730 -0.03670808 0.00003059 -0.00001232 0.00015567
52 1 10.302615 5.104867 16.693608 0.03788855 -0.01585942 -0.00882757 0.00041024 -0.00002447 0.00022905
53 1 28.020931 30.407826 37.077454 -0.05692719 0.02900211 -0.03005260 -0.00003468 -0.00008403 0.00013883
54 1 36.631316 2.688748 13.004394 0.02845532 0.00976871 -0.02522424 0.00005922 0.00001676 -0.00016646
55 1 13.490944 39.260778 2.396124 -0.00723476 0.00674077 -0.00835895 0.00015216 -0.00004542 -0.00001786
56 1 33.838513 30.806675 5.196428 -0.02312704 0.01878319 -0.01303334 0.00013897 -0.00008082 -0.00015549
57 1 0.107208 27.957594 7.448204 0.00595715 0.01248927 -0.00073299 0.00006801 -0.00002722 -0.00014146
58 1 12.040814 13.664973 4.070240 -0.02883281 -0.02051100 0.05942080 -0.00013328 -0.00011409 0.00004579
59 1 38.570188 14.904212 38.752809 0.07563279 -0.00011029 0.00888666 0.00008402 0.00006874 -0.00007583
60 1 16.473310 21.588551 26.123594 -0.01448357 -0.06255099 0.03668347 -0.00003506 0.00014845 0.00010136
61 1 33.705058 29.854255 35.589752 0.00595955 0.03620302 0.00133684 0.00014565 -0.00008351 0.00003820
62 1 21.185348 19.044412 4.991868 -0.03680476 -0.01461494 -0.07583067 -0.00016147 0.00002673 -0.00001085
63 1 20.717280 6.925120 1.048662 0.00925031 -0.01837916 0.00808515 -35875.21361768 -21980.98352590 6029.92081745
64 1 11.756267 6.830912 15.889086 -0.00735354 -0.02500723 0.04288000 -0.00009436 0.00030160 -0.00005385
65 1 9.547192 11.248907 21.513290 0.01982934 0.03468191 -0.07899314 0.00002743 0.00009606 -0.00009791
66 1 8.467892 13.406183 8.095814 0.01687826 0.01069569 0.01511721 0.00009878 0.00014889 0.00002846
67 1 32.751547 29.597286 33.561855 0.06692470 0.03774637 0.06398122 0.00012770 0.00003808 -0.00007624
68 1 17.734531 32.135799 7.787409 -0.01929476 0.03226510 -0.04876248 -0.00002388 0.00008238 0.00003700
69 1 24.094669 37.997815 19.165920 -0.00801292 -0.01589651 -0.00758421 -0.01244200 -0.00824449 0.02363314
70 1 36.459149 5.737034 15.988796 -0.00667472 0.02771135 0.06522286 0.00008911 0.00014524 0.00000471
71 1 4.571073 24.708312 16.805962 -0.03172111 -0.02268585 0.01593137 -0.00044465 -0.00088999 -0.00222890
72 1 11.218336 6.260964 9.585579 -0.02073469 -0.00236885 -0.03339030 -0.00000983 -0.00007354 0.00000477
73 1 18.896649 27.398154 29.511290 0.00906129 -0.03265517 -0.02302061 0.00000909 -0.00003808 0.00005145
74 1 20.336991 34.934348 12.919344 0.02303945 -0.01131878 -0.03367513 -0.00002500 0.00003779 -0.00007680
75 1 8.798417 34.680705 2.365830 0.00797501 0.00791141 -0.03880582 0.00003821 0.00019754 0.00010590
76 1 4.378803 34.106662 30.687648 0.00012515 -0.00614972 0.02217980 -0.00002367 -0.00026747 0.00017775
77 1 24.109267 11.490875 7.119672 -0.03099157 -0.00568373 -0.03295160 1839.16777296 -3351.17665962 2466.71198407
78 1 0.831519 26.943061 4.034213 -0.03541132 0.00434651 0.02612256 0.00014009 -0.00015490 0.00010543
79 1 12.736763 27.338250 26.774420 -0.00692692 0.02841945 -0.00696918 0.00014942 -0.00022848 0.00009519
80 1 0.705466 32.398640 4.590559 0.00603868 0.01244641 0.02113567 -0.00003439 -0.00005003 0.00003625
81 1 19.099974 34.321872 1.327512 -0.03953731 0.05598852 0.01714811 0.26568156 0.06218844 6.00771063
82 1 17.743028 11.632841 33.504257 -0.02650459 -0.01822993 -0.04831521 -0.00006145 0.00007744 -0.00014889
83 1 14.200049 10.784996 13.645603 0.00698245 0.01117866 -0.00653559 0.00006386 -0.00003495 -0.00002282
84 1 31.648012 23.371739 25.539802 0.06133486 -0.04705580 -0.00156387 629366.27799508 108222.80607276 -188136.76167153
85 1 33.088275 31.316708 16.010644 -0.00274784 -0.02766510 0.01321765 -0.06730063 -0.06897159 -0.08317179
86 1 16.524993 3.954459 8.137456 -0.03925583 -0.04975444 0.02512186 -0.00003006 -0.00007195 0.00014921
87 1 24.152765 33.147082 34.533943 0.03985231 0.04410314 -0.00227344 0.00048329 0.00011421 0.00013663
88 1 5.159659 18.888625 34.362015 -0.05417480 0.01323866 0.02360344 0.27078890 -2.64079745 -0.97205248
89 1 16.079444 9.740070 36.040181 -0.04162659 0.05250051 -0.00846186 -0.00028814 0.00027038 -0.00004708
90 1 21.761248 23.520377 31.335846 0.03090199 0.05183114 0.00686887 0.00002564 -0.00005425 0.00008136
91 1 7.511637 30.656082 17.586617 -0.01060292 -0.07185822 0.02509891 0.00001203 0.00013725 -0.00008372
92 1 6.848974 36.880760 24.222375 0.01975410 -0.05402047 0.02060450 -0.00020920 0.00005370 -0.00005751
93 1 18.742400 2.936169 38.324190 0.00743787 0.00418145 -0.00876242 -0.00027621 -0.00028232 -0.00031853
94 1 3.812446 0.877423 4.825052 0.02593281 0.00843212 -0.03930304 0.00010122 -0.00007402 0.00000238
95 1 34.589533 31.416895 20.686688 -0.05325575 0.02234247 0.01632648 0.00009823 -0.00012197 0.00041238
96 1 1.358949 36.452801 35.941078 0.01208349 0.02913233 -0.01706452 0.00018159 -0.00009430 0.00005401
97 1 21.085409 33.223469 13.718786 -0.02843514 -0.00896450 0.00691678 -0.00006070 -0.00008067 -0.00005269
98 1 33.719269 28.566050 3.588085 -0.02635667 0.04007072 0.01006272 -0.00001811 -0.00012007 0.00012087
99 1 4.723039 28.508575 34.958031 0.00149966 0.03858887 -0.02683146 -93.58684383 146.35912289 -99.22521411
100 1 12.142189 36.166610 22.512786 0.00466055 -0.00594463 0.01488666 0.00007944 0.00015860 -0.00020165
101 1 35.110328 1.308742 8.581799 0.04291788 -0.00284250 0.02623032 176151.51207817 836615.72046268 1392498.20308383
102 1 34.343680 21.171075 38.300108 0.04385813 0.04477710 0.03191315 -0.00018671 0.00002482 0.00003785
103 1 21.557047 25.455024 37.095995 -0.00741398 -0.02663460 -0.03574962 0.00007174 -0.00002491 0.00016515
104 1 37.384325 17.733418 2.858048 0.00777465 0.01308879 -0.04306686 -19.10976644 18.66099039 2.08259461
105 1 18.810022 26.428578 17.746119 0.05421445 0.03203972 0.02530199 0.00021219 -0.00007648 -0.00006305
106 1 17.105703 6.580469 24.620293 -0.05550155 -0.00080340 0.03267593 -0.00016467 0.00007942 0.00019146
107 1 13.359411 34.644018 36.988760 -0.03728281 -0.00589316 -0.01338720 -0.00006946 0.00001188 -0.00020022
108 1 11.862085 5.269073 20.834955 0.00955098 0.03299259 0.02045811 0.00005087 -0.00001437 -0.00010945
109 1 18.821904 1.715566 1.235746 -0.02216950 0.01701082 -0.01959528 -0.00015695 -0.00006964 -0.00003174
110 1 32.669727 3.788500 4.017633 -0.10107475 0.07041825 0.00878187 -75.85760139 -220.74280668 191.81519921
111 1 18.303966 13.203548 32.399287 0.00382228 0.04824385 0.03024942 -8968.75592489 6974.94234708 5287.65964373
112 1 31.034266 27.762790 25.408808 0.00924591 -0.00574837 0.02573617 -0.00018962 0.00084114 0.00014493
113 1 35.350464 27.346139 35.408676 -0.03096605 -0.05135871 0.01558419 -0.00001990 -0.00015783 0.00000512
114 1 13.783492 28.045430 31.045223 0.01569410 -0.01045385 0.03404932 60.57627003 -18.92785415 22.54148606
115 1 32.569698 0.116421 16.626154 0.00458351 -0.00133947 0.01084731 0.00000733 -0.00008110 -0.00000836
116 1 28.429365 15.707049 1.136443 0.02890941 0.04210201 0.01085691 -2395287.58397536 -3336995.58222812 -1883222.74914031
117 1 37.867176 35.312249 19.811705 -0.00931409 -0.01684769 -0.02059722 -0.00003673 -0.00009545 -0.00007138
118 1 19.927951 32.198455 14.603681 -0.04692960 0.02048796 0.00154499 -0.00001378 0.00008991 0.00002268
119 1 39.388031 6.630679 15.410803 -0.00096832 0.03066259 0.00332206 -0.00006507 0.00004900 0.00002286
120 1 25.312759 26.078269 38.492974 -0.00879513 -0.01327386 0.02321244 0.00031450 0.00000054 0.00018719
121 1 33.563595 36.476952 17.062171 0.04307050 -0.02860867 -0.06515180 -0.00008990 0.00036566 0.00016206
122 1 15.922059 21.364220 27.354636 0.01812047 0.04958537 -0.01714252 0.00015860 0.00013227 -0.00009877
123 1 26.899484 34.987779 1.178911 0.01653520 -0.02964907 0.03745137 -0.00005929 0.00000647 -0.00002652
124 1 18.304787 28.576484 22.829305 0.01692461 -0.04793974 -0.04574535 236.42445606 341.31780831 -759.97011949
125 1 34.099968 38.313983 16.049273 -0.02186530 0.00816840 -0.00073923 -0.00009073 -0.00005179 0.00010918
126 1 33.743360 17.586291 27.058514 -0.04814744 -0.01715345 0.01383455 -0.00013100 -0.00011752 0.00012322
127 1 0.775783 8.831881 12.453439 0.04256846 -0.02094453 0.01869042 0.00002619 -0.00000448 -0.00017426
128 1 17.182342 17.673973 34.901794 -0.01529021 -0.00708293 0.03201037 -0.00030724 0.00034484 0.00012744
129 1 39.256130 4.041681 7.503224 0.01164361 0.01537534 0.00951556 0.00037105 0.00007690 -0.00005754
130 1 36.078960 37.197469 9.644518 -0.04000211 -0.01912034 -0.05475458 0.00048013 -0.00138065 0.00030291
131 1 30.817280 20.189302 12.130596 -0.06021105 -0.01941836 0.02168336 0.00007147 0.00011438 -0.00001277
132 1 31.365877 10.873538 24.200687 -0.01176772 0.02274432 -0.04217985 0.00004346 -0.00004829 0.00001507
133 1 7.018442 16.347353 0.935010 0.01140113 -0.01981165 0.00016245 0.00006700 0.00014160 -0.00002212
134 1 36.010607 37.731865 11.850624 0.02422912 0.00168365 -0.04878456 0.00019711 -0.00040254 0.00049208
135 1 38.978168 2.275900 23.979996 0.00187884 -0.03969904 0.00797022 421.72096344 159.50800596 -30.17878341
136 1 25.684966 31.946932 8.328251 -0.06438274 -0.03984542 0.01780726 -0.00007439 0.00014454 0.00004897
137 1 31.296994 6.523856 22.530029 0.03207150 -0.00362032 0.01610997 0.00011256 -0.00001630 -0.00009261
138 1 12.555577 32.992741 23.532040 0.03411901 0.02613610 0.01682451 -0.00008981 0.00000821 0.00010260
139 1 27.887538 17.743771 3.180969 -0.00478530 0.03116372 0.01611065 0.00268521 -0.00516315 -0.00547335
140 1 38.510523 3.490512 10.369280 0.01110298 -0.02732946 -0.05474322 0.00060958 0.00055867 0.00027775
141 1 17.872111 24.084705 25.614045 -0.01337942 0.00346048 0.01177477 0.00001500 -0.00029425 0.00023469
142 1 31.926734 23.897106 27.489768 -0.00733574 0.05994099 0.00570209 -0.40286272 -0.75902153 -2.81770453
143 1 32.874504 28.710578 17.275116 0.04146723 -0.03905698 -0.02455979 0.00106513 0.01083170 -0.00528548
144 1 30.042158 35.451897 34.890371 0.05172563 -0.02439870 0.03600813 111844.32736284 -100710.30319116 211879.93668431
145 1 25.138755 19.163130 20.782595 0.00725853 -0.00664374 -0.04010318 0.00001332 -0.00011826 -0.00010932
146 1 23.835099 11.717348 19.408398 0.05756144 0.01258869 0.01357185 0.24874391 -0.18722868 0.07132093
147 1 3.677464 24.891082 14.761797 -0.03391458 0.06637355 0.01357717 -0.00011580 -0.00004652 -0.00015430
148 1 27.241435 33.222176 9.212472 -0.03798941 0.01514384 -0.01227833 0.00002177 -0.00008953 0.00006188
149 1 8.983148 4.424381 19.864549 -0.00566631 -0.01665141 0.00423090 0.00008477 -0.00008868 0.00007757
150 1 20.414237 39.174405 33.106131 0.05185074 0.00134999 0.01210410 0.00004318 0.00029243 0.00006040
151 1 20.349373 37.047243 15.623384 0.06658737 0.03312968 0.00996297 0.00001572 0.00001696 0.00014337
152 1 34.209506 5.223680 13.303989 -0.00098011 -0.02692269 0.01259430 0.00026712 0.00013740 -0.00002257
153 1 32.951652 37.152302 37.684430 -0.00983371 -0.00600722 0.02171567 1087.89848319 309.93814098 -328.16450576
154 1 5.538637 5.781483 20.688002 -0.07425020 0.03052471 -0.01782047 0.00000987 0.00025724 -0.00010288
155 1 31.121132 27.806793 15.023476 0.06155612 -0.00663165 0.02332803 -0.00057959 -0.00125982 -0.00028101
156 1 37.819438 39.119471 6.078358 -0.01449437 -0.05479341 -0.01261647 -10443.57726713 4864.33101994 -3477.56246805
157 1 37.180965 10.416042 29.412260 0.04858369 0.02671408 -0.01115911 0.00001816 -0.00006356 -0.00013443
158 1 29.927839 26.653818 35.195083 -0.01956807 -0.03279168 0.02427688 128169.86646404 427783.78836312 -266014.73826329
159 1 16.507764 6.402443 26.222321 0.00470472 -0.00276203 -0.03044735 -0.00005931 0.00019313 0.00011939
160 1 18.194466 38.445334 30.373077 0.05407563 0.00025658 0.03767259 -0.00027933 0.00035424 -0.00004299
161 1 35.122860 10.587745 7.041261 0.00414451 -0.01875836 -0.00299907 0.00009890 0.00005627 0.00006321
162 1 22.873836 27.865772 27.177566 0.04377896 -0.00754728 0.00202530 0.00013714 0.00009481 0.00005320
163 1 27.949990 11.642321 18.640705 -0.00800596 0.01320159 0.00696198 -0.00814964 -0.00463251 0.00483104
164 1 11.154971 39.551372 29.224976 -0.04203622 0.02510804 -0.03294101 0.00003139 -0.00003420 0.00003304
165 1 12.866996 37.842808 18.194105 0.01953691 -0.01324868 -0.03909713 0.00017676 0.00008348 0.00009455
166 1 33.269493 2.102011 11.578304 0.05614636 -0.02096805 -0.03800137 -0.00129851 0.00042144 0.00206192
167 1 9.816261 38.138157 13.729837 0.04782887 0.00423853 0.04095631 -116958.78235200 88225.90725673 -107506.55371332
168 1 23.897973 14.595348 20.266609 0.00801485 0.07485652 -0.02490843 -0.00000617 0.00044077 0.00016392
169 1 22.890139 29.110683 27.309254 0.01924561 0.03528199 0.00081248 0.00018071 0.00018504 0.00033093
170 1 14.372803 30.613030 22.831319 -0.00369306 0.03800826 -0.01820004 -1620.81607559 -30.82010505 313.05043111
171 1 5.241104 24.140622 3.243367 0.01624532 -0.01912548 -0.00778801 -0.00036285 -0.00006806 -0.00006460
172 1 12.168809 27.515483 8.380239 0.01878001 0.05483627 -0.00289242 -0.00007611 0.00001999 0.00001172
173 1 1.771451 12.612824 35.778531 -0.01622401 0.00573756 0.01800864 102.96538047 77.61037550 72.80622176
174 1 17.849969 4.276175 20.171646 0.00982131 0.03779498 -0.03776201 6.88441536 2.40954981 -4.49634475
175 1 8.815027 33.233996 6.181487 0.00167063 0.04765208 -0.01353324 0.00010147 -0.00001010 0.00011114
176 1 37.350858 21.147767 28.089948 -0.00208742 0.01736518 0.02719062 0.00004893 0.00002596 0.00003512
177 1 26.128265 20.648879 11.802432 0.01379379 -0.02969849 0.01264459 0.00016019 0.00006195 -0.00003448
178 1 30.635205 24.397344 7.679701 -0.02167447 -0.00581775 0.00897782 0.00003467 -0.00006387 -0.00008969
179 1 28.362310 27.359756 7.110954 -0.01490990 -0.04232668 -0.01225021 -0.00014145 0.00001969 0.00002475
180 1 17.956439 32.449760 23.182205 0.01819548 -0.00743647 -0.02822383 0.00117934 0.00255722 0.00036581
181 1 20.519348 2.137642 38.546328 0.02190060 -0.03928184 -0.05196336 0.00008657 -0.00016451 0.00011516
182 1 1.274710 36.135466 4.567592 0.01740381 -0.01784303 -0.01858225 0.00026089 -0.00048331 -0.00025207
183 1 20.712393 15.361103 22.922020 0.06271139 0.02953477 0.04353387 -0.00003343 -0.00012229 0.00001408
184 1 13.719014 9.150666 27.605015 0.04810817 -0.02503388 -0.04072805 -4.14277310 3.31740155 3.08995472
185 1 1.135849 35.515741 38.540178 0.01968649 -0.00557927 0.03469861 -0.00001112 0.00016941 0.00008633
186 1 32.528631 33.885437 36.820319 0.00184243 -0.02822135 -0.02583192 0.00159778 -0.00343698 0.00073254
187 1 27.649138 19.081712 33.599785 -0.04283362 0.01880304 -0.03987915 -0.00005309 0.00017464 -0.00009693
188 1 0.082039 9.127182 0.952349 -0.05960290 -0.04388951 -0.04300362 0.00017518 -0.00000087 0.00005630
189 1 1.176004 28.860400 32.156407 -0.04870322 0.06594479 -0.05965379 -0.00061039 0.00006751 -0.00059360
190 1 10.374463 31.033214 10.405143 -0.02083686 -0.02090070 0.07020502 -0.00015282 -0.00001134 -0.00025395
191 1 2.778861 31.332649 14.401064 -0.03305674 -0.00963141 0.04227188 0.00003036 0.00002923 -0.00005023
192 1 14.440137 0.504621 30.093990 0.02879154 -0.02736029 0.06069967 0.00016067 -0.00010308 -0.00009786
193 1 17.299366 14.427137 29.092062 0.00318134 0.00744077 -0.06048752 -0.00066186 0.00077443 -0.00206807
194 1 28.975254 1.204042 25.546971 0.00775766 0.03291574 -0.02535641 0.00017935 -0.00015648 0.00009809
195 1 38.302824 14.530886 15.841540 0.01483951 0.02024469 -0.02435534 0.00002856 -0.00014292 0.00006400
196 1 39.378625 33.843864 30.480165 0.03023483 -0.00544928 -0.00295496 0.00005132 0.00007121 0.00002676
197 1 19.428435 23.973716 31.013324 0.01945388 -0.00045913 0.01305024 0.00009210 -0.00016977 -0.00012193
198 1 32.829948 0.911452 11.521441 -0.00689578 0.03302675 -0.05023771 -0.00150083 -0.00027094 0.00176221
199 1 33.086240 4.031359 0.228411 0.02387668 0.02979120 -0.02689174 0.00013888 0.00032419 -0.00208953
200 1 37.863512 29.845939 0.210553 0.02750304 -0.01045171 -0.03504099 -0.00003338 -0.00000994 0.00007785
201 1 36.857005 37.900539 27.031283 0.00450942 -0.04496011 -0.03230362 -4031.61553118 -8790.23586888 8921.27511783
202 1 32.401181 34.785823 35.852448 0.04650351 -0.03159815 -0.00502763 -0.06640797 0.02125581 -0.02532937
203 1 3.098184 19.639906 19.722467 -0.00484815 -0.02557293 -0.02216529 -0.00012192 -0.00012857 -0.00007949
204 1 35.806981 21.302339 15.293372 -0.00351453 -0.03042954 0.00344307 -0.00010116 0.00004306 -0.00010876
205 1 35.510302 15.296393 5.713139 0.03312555 0.05378520 0.03523026 -0.00059806 -0.00079317 0.00084230
206 1 35.409024 24.985719 19.235724 0.02079301 0.00858187 0.03214530 -0.00012900 -0.00008259 -0.00000152
207 1 21.918396 18.130019 26.237756 -0.04960613 0.03798683 0.04017524 -0.00010131 -0.00010304 -0.00003964
208 1 28.130301 1.475812 11.516076 0.00066661 0.01901830 -0.05143316 -0.00006929 -0.00003949 0.00005675
209 1 11.679420 12.866823 36.088213 -0.02009776 0.02801463 -0.02129957 0.00006351 0.00012475 0.00008673
210 1 30.632460 16.938083 11.916554 0.02121238 0.06178841 -0.00306046 -0.00004904 -0.00026510 -0.00010455
211 1 5.228251 1.136731 39.607591 -0.05469510 0.01292058 0.00716175 0.00002525 0.00017577 -0.00005540
212 1 33.831346 28.339660 37.636278 0.06203386 -0.04859163 -0.00442811 0.00030243 0.00013438 0.00043002
213 1 21.136695 35.657144 6.438383 0.01010984 -0.02550902 -0.01530010 0.00015507 -0.00002374 0.00031324
214 1 21.261907 38.413557 29.407773 -0.01574148 -0.02456675 -0.00709337 0.00002243 0.00030969 -0.00028752
215 1 26.593802 2.771133 9.541604 0.02643994 -0.02847903 -0.04485962 0.00004846 -0.00000983 0.00003128
216 1 30.044925 0.393166 21.142104 0.05799836 -0.08187483 0.00774208 0.00015394 -0.00000618 -0.00009107
217 1 6.752797 16.465495 4.853027 0.00842883 -0.01014145 -0.04146209 0.00020375 -0.00018329 0.00005472
218 1 15.060157 15.561942 21.449141 -0.04470456 -0.03165366 -0.01983923 -0.00022666 0.00001170 -0.00014214
219 1 20.083005 20.736465 6.372524 -0.03761333 0.01773881 -0.02034286 -0.00006040 0.00008174 0.00003267
220 1 1.037427 39.448112 21.304051 0.01794549 -0.01732355 0.03717506 -48660.40166738 -41740.82763022 11585.35824940
221 1 27.839235 10.752221 13.951257 -0.07915873 -0.00718460 -0.04492665 0.00000247 -0.00008561 -0.00017468
222 1 13.504224 36.332174 32.498977 -0.00329412 -0.04589333 -0.00971765 -0.00023470 -0.00013046 -0.00002672
223 1 35.358043 33.755316 20.792822 0.01028427 -0.04620282 -0.05602808 -0.00012166 0.00001434 0.00037721
224 1 26.271504 34.032987 37.242600 0.01473393 0.01284832 -0.04979673 -0.00064696 -0.00020734 0.00032819
225 1 23.277580 34.764212 39.196601 0.00091405 -0.02658724 0.00882182 0.00059682 -0.00017246 -0.00029494
226 1 24.113596 37.485576 32.867401 0.04094051 -0.01283857 -0.07024607 0.00013840 0.00010548 0.00000149
227 1 4.003762 33.224232 27.726022 0.02183191 0.02462880 0.08278370 -76752.80127817 -310874.07294716 -138407.12673559
228 1 32.821729 16.320569 8.296882 -0.02402663 -0.04103526 -0.01547494 0.00012251 -0.00009362 -0.00006829
229 1 30.315019 3.975319 37.329016 -0.03726238 0.00216721 0.07829123 0.00000418 0.00008894 0.00005563
230 1 19.139312 15.219553 0.956833 0.00308459 0.02175427 -0.00232430 4.24060456 5.06445834 -17.45214519
231 1 11.147297 6.351972 17.334292 0.02434937 -0.01367948 -0.01740624 0.00007766 -0.00004805 -0.00001720
232 1 12.083488 5.743089 1.189657 -0.01793011 0.02966193 0.01780100 -0.00004185 0.00004654 -0.00003343
233 1 22.128286 18.941381 1.052192 -0.04307114 -0.03293573 -0.02565318 0.00041857 0.00054463 0.00013201
234 1 33.036495 35.765917 6.225894 -0.02603836 -0.02168509 0.05042725 -0.00013208 -0.00000867 -0.00008813
235 1 19.429632 5.682232 34.935990 0.01556004 0.04334565 -0.03509703 0.00023700 0.00020450 -0.00013212
236 1 7.342570 32.278622 1.345266 -0.02917347 0.02035045 0.00858722 0.00005952 -0.00001500 0.00005470
237 1 29.127955 34.151876 22.397974 0.00254461 0.00040944 -0.02409478 -0.00007364 0.00009972 0.00004158
238 1 18.090817 7.608764 39.198567 0.00933545 0.04388034 0.01216873 -0.00006194 0.00001812 0.00005185
239 1 11.235335 5.038141 23.908629 0.01423644 -0.01881906 -0.00170651 -0.00010730 -0.00003611 -0.00017456
240 1 21.500645 11.413744 22.923894 -0.03518977 -0.06111515 -0.02620701 -0.00026319 0.00007924 0.00024334
241 1 22.138568 0.438478 15.252874 0.02849056 -0.04929149 0.01688094 -0.00019909 0.00016148 0.00000608
242 1 39.455999 33.498123 8.919402 -0.00796259 -0.00690181 -0.00930133 -0.00000941 -0.00013469 0.00005742
243 1 9.444101 35.917313 4.644999 0.01566354 0.01840676 0.05522949 0.00005560 0.00007017 -0.00007842
244 1 26.113573 16.541072 8.878349 -0.02553267 0.03334606 -0.00937878 0.00012765 0.00018304 0.00003623
245 1 17.283024 19.127336 10.177482 0.01183187 0.01896077 -0.00526399 0.00006950 -0.00010075 0.00013761
246 1 20.431022 37.820347 3.272903 0.01199987 0.01492978 -0.00418585 0.00057496 0.00108479 0.00050330
247 1 22.034360 11.135807 8.954299 0.02139528 -0.00880817 -0.06192150 0.01499165 -0.00284143 -0.00709095
248 1 4.324641 0.692893 10.466058 0.02966596 0.01648768 -0.03165512 -0.00027779 -0.00020661 -0.00007293
249 1 5.144073 32.547508 37.179973 -0.01549624 -0.00023329 -0.04387670 0.00004052 0.00026315 0.00047427
250 1 13.841223 19.631555 30.188558 -0.00591929 0.01433049 -0.03978778 -0.00013222 -0.00002590 0.00005461
251 1 8.283428 1.231928 23.723865 0.04629954 -0.00491986 0.01590149 -0.00002992 0.00003015 -0.00037266
252 1 35.560455 11.136558 37.813643 -0.01769566 0.07686142 0.01719474 -0.00008166 0.00008591 0.00010339
253 1 10.935117 12.369941 30.210987 0.02075766 0.02052578 0.00982255 -0.00033998 0.00044238 0.00020981
254 1 14.471708 28.092540 19.748638 0.03017671 0.01866052 0.05488917 -0.00033409 -0.00123190 -0.00149971
255 1 30.550938 9.361794 7.241343 0.00583857 -0.02989029 -0.01541795 0.00023338 -0.00005360 -0.00014219
256 1 25.533293 30.677082 37.024339 0.06330350 0.01740159 -0.03437016 -7.11725892 -7.28978193 3.30549442
257 1 11.027052 24.526540 8.581509 -0.00186129 -0.00122666 0.02817308 -0.00007842 0.00000456 -0.00009422
258 1 38.085763 16.623928 21.730457 0.02284228 -0.02197471 0.01324776 0.00016434 -0.00002849 -0.00006289
259 1 1.559566 35.891536 29.777309 -0.04481352 0.03213163 0.00572103 -0.00060296 0.00075895 0.00062047
260 1 19.270359 38.981300 9.544771 0.03229241 -0.00332871 -0.02777096 -0.00001125 0.00015341 0.00000104
261 1 3.836766 25.559157 16.140865 0.03761491 0.00884835 -0.04827174 -0.00052973 -0.00022581 -0.00129996
262 1 33.371605 9.494187 18.386928 -0.02171555 0.02142042 -0.04703183 -22241.07588410 -34693.40290451 199660.75157008
263 1 30.046985 10.047178 10.617255 0.04737267 -0.00409242 -0.04226854 -0.00000828 -0.00020946 -0.00003108
264 1 3.788246 8.817400 21.230646 0.01129680 0.01952071 0.02990109 0.00002777 -0.00003536 -0.00009065
265 1 11.443763 38.961496 7.699662 -0.05277277 0.00169940 0.01356756 0.00020905 -0.00008525 -0.00003667
266 1 19.171316 5.357007 21.333432 0.05045871 -0.00582673 0.04394767 0.07532165 -0.21778912 -0.84850678
267 1 16.000709 24.169888 23.962787 -0.03112584 -0.01486221 -0.00525543 -0.00013462 -0.00043968 0.00013295
268 1 18.264119 4.482019 8.568256 0.01664787 0.00232016 -0.00185035 0.00006194 0.00009253 -0.00016050
269 1 21.446439 35.124311 10.510007 0.03576514 -0.00634584 0.00436230 0.00000518 0.00004597 0.00004071
270 1 31.788896 7.099256 21.756402 0.01857519 -0.02118429 0.01719902 -0.00032091 -0.00035352 0.00068585
271 1 26.022121 28.061360 18.022648 0.00375819 0.04113592 0.04864453 -10.92084483 3.64081008 -2.31365223
272 1 9.507407 30.106817 16.094622 0.03387419 0.01411697 -0.03575212 -0.00021061 0.00001995 0.00015308
273 1 22.794859 33.892607 19.916846 0.01939746 -0.01027659 0.01864640 -0.00015585 -0.00214777 -0.00092745
274 1 19.852231 35.853741 38.879096 0.04090636 -0.01480544 -0.00766776 -0.00828141 -0.01652129 0.02393114
275 1 11.177837 8.988719 0.478741 -0.01828073 -0.01069189 -0.01317682 0.00003409 0.00014275 -0.00021625
276 1 16.114248 1.989784 5.991210 0.06494980 0.01507936 -0.01548773 -0.00005717 0.00006095 0.00000184
277 1 3.220258 30.177578 37.355395 0.02759667 -0.03508842 -0.01916147 -0.00088221 0.00090000 0.00124766
278 1 14.527995 24.017332 2.728666 -0.04166108 0.05812591 0.04890188 -0.00003477 -0.00006703 0.00002762
279 1 21.068725 0.700578 34.461742 -0.02387210 -0.02493661 -0.01054956 -0.00000521 -0.00006437 -0.00000958
280 1 22.141179 3.698964 22.769407 0.01785785 -0.01744431 -0.04826491 0.00042827 0.00015657 0.00041744
281 1 4.336345 25.943983 2.890826 0.03111007 0.00289753 -0.03069600 0.00009804 -0.00010557 0.00004723
282 1 17.662239 15.068579 35.430099 0.01704180 0.04874765 0.04561118 -0.00064877 0.00123292 0.00178952
283 1 2.837347 12.207401 4.890659 -0.06598483 -0.02146006 0.02679007 -0.00005374 0.00001880 0.00000851
284 1 14.737110 20.409804 35.868020 0.00397802 -0.02234611 -0.01430419 -0.00009224 0.00006369 -0.00004430