ITEM: TIMESTEP
0
ITEM: NUMBER OF ATOMS
3617
ITEM: BOX BOUNDS pp pp pp
0.0 38.476678
0.0 38.476678
0.0 38.476678
ITEM: ATOMS id type x y z vx vy vz fx fy fz
1 1 27.999091 11.668532 33.957552 -0.03617813 0.04035784 -0.01095203 -0.00004023 -0.00006741 0.00005424
2 1 29.938649 16.431262 27.090370 0.02212177 0.00598817 -0.00956301 0.00000057 0.00023452 0.00004450
3 1 0.055694 3.909140 14.050960 0.00798894 0.07444493 0.03686757 0.00001478 -0.00014370 0.00000488
4 1 17.221448 33.112988 5.334110 0.02266355 -0.00091879 0.05274167 0.00010076 0.00017359 -0.00000943
5 1 24.576598 26.897283 18.815681 -0.00009991 -0.01442367 0.00234389 -0.00013905 -0.00006621 -0.00007902
6 1 2.704997 2.058827 27.854723 0.03636323 -0.00063563 0.03323318 0.00005324 -0.00005330 -0.00036503
7 1 2.772358 35.865227 26.533169 0.05333310 0.00331162 -0.01971450 0.00000977 0.00009074 0.00012773
8 1 6.034498 36.673935 28.753663 -0.06769475 -0.00144167 0.03319304 0.00011462 0.00006374 0.00004734
9 1 32.347420 28.374340 26.234387 -0.06180764 -0.00474926 0.02924010 -0.00001219 -0.00007917 -0.00000159
10 1 28.368489 6.152771 19.896925 -0.02854162 -0.01786658 0.03661600 0.00001021 0.00021745 -0.00022375
11 1 3.071038 31.189317 26.011249 0.00062720 -0.03280617 0.00881333 -0.00011576 -0.00008456 -0.00005793
12 1 10.542277 34.142895 34.173363 -0.00365743 0.02402666 0.03453877 0.00000570 -0.00000275 -0.00005586
13 1 37.316465 35.580880 6.449158 0.02762930 -0.06576657 -0.00050568 0.00005062 -0.00004752 -0.00008934
14 1 38.382880 19.852897 36.219166 -0.04407155 0.03603419 0.02920352 0.00018563 0.00008213 -0.00010058
15 1 9.136148 13.817396 15.309680 -0.02863024 0.00721620 -0.05474003 0.00016379 -0.00003972 -0.00006239
16 1 16.887206 7.505598 26.818182 -0.05224248 0.02017679 -0.02723507 -0.00003166 0.00008179 0.00006803
17 1 13.977701 35.867182 33.351250 0.04082044 -0.01586733 -0.05982939 -0.00005984 -0.00001578 -0.00003110
18 1 3.168283 23.558999 22.738940 -0.01606470 -0.02488316 -0.04181548 0.00001411 0.00012915 0.00011384
19 1 1.185347 27.123276 5.653399 -0.03565191 -0.01432871 0.01013097 0.00007209 0.00002153 -0.00007018
20 1 14.745063 2.713842 23.027262 0.03597502 0.03634551 -0.00604652 -0.00003788 -0.00001411 -0.00009892
21 1 37.415951 5.108034 11.994680 0.02379978 0.02878135 -0.03635545 0.00000956 -0.00007708 0.00008384
22 1 19.457930 9.707500 34.668378 -0.03710668 -0.01739513 -0.01882859 -0.00023555 0.00000568 -0.00016105
23 1 10.300086 10.530526 23.993153 0.00208751 -0.01745619 -0.01009176 -0.00000709 0.00009834 0.00007988
24 1 36.830866 23.203803 33.799746 -0.05230127 0.02626723 0.01185927 0.00021178 -0.00013588 0.00013936
25 1 31.154347 12.034811 16.555849 0.01000119 0.02370175 0.01299714 0.00003402 -0.00022179 -0.00001783
26 1 15.950651 0.871971 23.559874 0.02006564 0.03493938 0.00780303 0.00009824 -0.00004963 0.00001485
27 1 3.836525 34.725134 33.199633 0.00745446 -0.00451494 -0.00659908 0.00006499 0.00004099 -0.00012844
28 1 24.580712 29.933670 32.512478 0.05605512 -0.01949986 -0.03781015 -0.00013741 0.00000385 -0.00010594
29 1 7.005742 26.123761 29.712111 0.00716326 -0.04856905 0.01311677 -0.00001004 0.00004606 0.00001779
30 1 7.084639 22.792785 25.818707 0.04553248 -0.00684950 -0.01991781 0.00007842 0.00003027 0.00003088
31 1 21.977795 33.794984 22.446575 0.00876423 0.00360764 -0.00175607 -0.00010695 0.00001933 -0.00000902
32 1 25.632083 1.198000 6.388527 -0.01996599 0.04488154 0.02961992 0.00003782 -0.00003501 -0.00002188
33 1 15.295035 24.606303 2.046460 0.01921829 0.01428878 -0.07376170 -0.00005853 0.00005212 0.00000969
34 1 30.432732 2.873912 21.598473 -0.01290384 0.03556066 -0.00707983 -0.00005708 -0.00010985 0.00001375
35 1 24.570110 0.971395 11.972341 0.01625589 -0.01721814 0.03910744 -824.36109867 829.66185809 166.27124539
36 1 26.333389 31.147954 21.225422 0.00500542 0.00126763 0.02108668 0.00001899 -0.00015019 0.00017067
37 1 22.019239 12.829336 5.689631 0.02902715 0.05428781 -0.05485792 0.00014907 -0.00009694 -0.00004162
38 1 5.866467 17.111639 18.760063 -0.03394985 0.00696084 0.04468368 0.00002108 0.00001799 0.00002388
39 1 12.733534 35.448845 4.290625 0.02345484 0.00825696 0.06218915 -0.00005347 -0.00000281 0.00003825
40 1 24.320826 25.750858 18.966027 0.00635152 0.08806463 0.00935789 -0.00010419 0.00007334 0.00003510
41 1 15.836523 4.782491 3.203066 0.00738935 0.00277674 0.00441790 0.00014717 -0.00005071 -0.00008562
42 1 35.102164 7.336824 25.218421 -0.02724278 -0.01326480 -0.00599206 0.00016462 0.00002503 -0.00006717
43 1 10.367891 34.411666 10.721447 0.00952464 0.02901799 -0.00104385 0.00009436 0.00005263 -0.00003503
44 1 35.598824 14.815026 24.575877 -0.08286533 -0.00008487 -0.03391797 0.00003607 0.00012441 0.00001607
45 1 4.485993 32.821125 33.526429 0.02974683 -0.05107346 -0.03898860 -0.00002868 0.00000086 -0.00010780
46 1 9.487105 37.529136 22.628148 -0.02701059 0.00842561 -0.00195649 120.22929846 -34.99479720 -154.39250255
47 1 33.546589 3.558721 26.692527 0.00186291 -0.02074514 0.02168730 0.00015503 0.00002399 0.00000149
48 1 8.526697 21.194850 36.274170 -0.02329271 -0.00954929 -0.05066604 297.21194580 500.63987635 415.75892865
49 1 10.863301 31.967742 9.856640 -0.05470368 -0.03518752 -0.03979147 0.00000298 0.00009970 -0.00001564
50 1 16.985465 29.128151 6.466561 -0.04049303 0.02393808 -0.01152697 0.00002041 0.00004566 -0.00003600
51 1 36.752006 2.756029 26.340976 0.05671546 0.10223204 -0.01215793 -0.00006243 -0.00005059 0.00002961
52 1 1.665014 25.856974 3.531794 0.04415182 0.03658529 -0.00856732 -0.00001953 0.00013902 -0.00009590
53 1 9.215129 37.493988 31.620609 -0.03840327 0.03349525 0.02370542 0.00002872 -0.00011176 0.00004877
54 1 1.158570 23.467748 1.744020 -0.09183553 -0.00107321 -0.01532901 0.00018636 -0.00004417 -0.00010541
55 1 30.446797 23.545893 12.869802 -0.00989989 0.03989012 -0.01664669 -0.00017540 0.00007532 0.00004135
56 1 19.344843 28.211889 20.998758 0.04292713 -0.01264234 -0.01008897 -0.00007359 -0.00001859 -0.00025405
57 1 24.357547 26.323169 24.190097 -0.00206836 -0.03353335 0.04186059 46602904.99492873 -115475389.67597611 -25635372.90654679
58 1 2.700942 18.346816 26.657978 0.01780854 0.01357138 -0.03917006 0.00012030 -0.00003688 0.00000516
59 1 0.119505 28.810756 23.888483 0.03362113 -0.05292626 -0.02419364 -0.00000697 -0.00007593 -0.00003812
60 1 4.467849 38.001019 35.719577 -0.00690543 0.00789469 -0.03729607 -0.00008065 0.00004054 -0.00006406
61 1 20.485254 25.289419 35.033867 -0.01286670 0.00422474 -0.00589243 0.00029961 0.00000810 -0.00013178
62 1 7.317211 21.411285 13.645395 -0.02324946 0.06713461 0.02698232 -0.00011853 0.00005372 -0.00007402
63 1 20.881530 33.342270 5.868810 -0.02011528 0.02537543 -0.00828821 0.00000603 -0.00000081 -0.00004872
64 1 20.474471 10.454974 37.210320 -0.00132176 -0.02620136 -0.03992563 -0.00008660 -0.00001036 -0.00006014
65 1 10.914948 31.497180 37.150621 0.03714806 0.00289163 0.05458524 -43.67293569 17.37017096 -34.77532919
66 1 38.425933 18.265129 33.987469 0.05117662 0.00389484 -0.01236228 -0.00000316 -0.00002524 -0.00010808
67 1 7.975572 5.151754 21.611268 -0.07774502 0.03046915 0.02623134 -0.00006990 0.00011390 0.00006055
68 1 5.639247 38.157299 21.937973 -0.03819450 -0.00388444 0.03370513 -0.00169916 0.00030818 -0.00033147
69 1 33.521027 18.901669 36.643387 0.00075460 0.01508549 -0.07220363 0.00026960 -0.00008942 -0.00012335
70 1 30.347553 11.277976 36.458730 0.01642155 0.00079156 -0.02679811 -0.00003081 0.00001413 -0.00002617
71 1 27.665774 16.374603 36.926494 -0.00580290 0.02096101 -0.03807637 0.00003718 0.00014774 0.00012943
72 1 28.971195 31.433037 34.151091 -0.02659054 -0.00625846 -0.01159325 0.00002918 0.00006294 -0.00008467
73 1 1.401140 27.311637 30.407593 0.01038352 0.01966538 -0.01649851 -0.57687089 -0.75565039 -0.25370048
74 1 33.519212 0.342536 34.440947 0.03636024 -0.04810308 0.02005726 0.00010709 -0.00011487 -0.00006504
75 1 32.449974 19.041942 32.350523 -0.06080874 0.02065415 -0.04128101 -0.00009562 0.00001269 -0.00000000
76 1 23.861698 14.992973 22.094072 -0.00276435 -0.01008457 0.02125983 0.00005299 0.00009039 -0.00005145
77 1 26.963700 11.610274 10.352355 0.04530192 0.00130434 0.01238200 0.00008683 -0.00003133 -0.00002906
78 1 4.718974 2.067041 27.312043 0.03981917 -0.05566364 0.00951775 -0.00019657 0.00011476 -0.00001862
79 1 17.045703 30.270875 33.726029 -0.01621653 0.00621118 -0.03537898 0.00003087 -0.00016819 0.00010050
80 1 13.806328 36.299715 12.607159 0.02036418 0.03249878 -0.08032868 -13.68462383 2.69291721 -15.02734145
81 1 22.317843 27.684671 22.256444 -0.07963538 0.07033126 -0.05906351 0.00036958 -0.00006643 0.00031428
82 1 14.622315 7.248944 37.977992 -0.00089013 -0.03999978 0.00938585 -0.00009816 -0.00004040 0.00010881
83 1 8.295380 20.057662 22.065823 -0.02850777 -0.04198583 0.04753259 -0.00011509 -0.00009065 0.00013469
84 1 1.579876 25.070059 6.260588 -0.00191177 -0.03637287 -0.01237952 -0.00008843 0.00011947 -0.00002265
85 1 10.723511 4.338530 0.043784 0.01086630 0.03135815 -0.00351929 -0.00002558 0.00003989 0.00005150
86 1 29.031644 37.136840 23.472048 0.05089718 -0.00536389 -0.01817418 -0.00008418 -0.00009814 0.00000884
87 1 10.569473 10.191288 5.214896 -0.00354200 0.00074909 0.02688202 -0.00004703 0.00020352 0.00012951
88 1 10.222279 17.695158 34.679560 0.00759148 -0.00099280 0.02914827 0.00050250 -0.00092128 -0.00026686
89 1 28.591066 25.758084 24.564387 -0.01446532 -0.02609421 -0.02141085 0.00116456 -0.00026813 0.00017244
90 1 12.428225 16.429810 16.111357 0.02128756 0.00507594 -0.08317177 0.00006095 -0.00006916 -0.00005730
91 1 36.035829 21.080384 18.286366 -0.02426695 0.04155750 0.03834639 -0.00024895 0.00016748 -0.00012742
92 1 20.294080 31.716529 10.033285 0.06844002 0.07177730 -0.00829702 0.00022213 0.00016425 0.00003330
93 1 25.929908 3.745679 9.594882 0.02513934 0.00381866 -0.06224316 0.00057838 0.00128742 -0.00129648
94 1 3.761051 21.456687 6.791202 0.03151571 -0.02214414 0.00241092 -0.00011387 -0.00008709 0.00001404
95 1 16.112294 15.490266 29.655121 0.00640076 -0.03258153 -0.04157473 -0.00000305 -0.00018284 -0.00014562
96 1 24.766509 4.309511 28.711415 0.04295607 0.03104362 0.04552322 0.00003418 -0.00000192 -0.00012918
97 1 28.503870 32.595532 24.526917 -0.04740683 0.00245698 -0.01908623 -0.00008197 -0.00003924 0.00001668
98 1 4.098673 36.176635 30.486637 0.07435100 0.03476735 -0.01160532 -0.00004587 -0.00008287 0.00010639
99 1 35.774080 35.608268 11.409880 0.04602584 0.02241753 0.01291984 -0.00001228 0.00001999 0.00003655
100 1 8.369524 22.782337 29.357071 0.01150860 0.04340898 -0.00585007 0.00009828 -0.00003300 -0.00022457
101 1 15.291110 3.953801 23.860581 0.02192662 -0.02988333 -0.02154159 -0.00006973 -0.00000370 0.00002108
102 1 21.178030 11.285749 10.039022 -0.03627480 -0.02242611 -0.00332741 801375.97763124 -1330806.85015787 1642528.41007253
103 1 27.266046 0.882438 35.203267 0.06661191 0.02150270 0.01252095 6.32853087 7.97133634 9.35172629
104 1 2.413810 6.702917 9.158323 -0.02413513 0.06562642 -0.02172133 -879769.08119293 203688.55005152 -805782.61375208
105 1 26.505012 22.505057 11.997634 -0.04158695 0.00161665 -0.03526200 -0.00014168 0.00004134 0.00017735
106 1 20.717308 2.865040 8.578315 0.01587268 0.02336571 0.07591891 -0.00006997 0.00010127 0.00000041
107 1 37.386466 12.515292 36.105893 0.01287155 -0.02710210 -0.02736292 0.00000204 0.00004786 -0.00010775
108 1 3.932359 27.314858 19.296988 0.05140789 -0.01679494 -0.02292117 -0.00005056 0.00011253 -0.00010099
109 1 4.119399 18.132998 6.482095 0.01214789 -0.00717632 0.05837599 0.00004457 -0.00020045 -0.00000775
110 1 4.629949 31.495169 23.392054 0.00015337 -0.00953072 0.00723377 -0.00000328 -0.00001378 0.00001047
111 1 5.704613 20.491137 15.522144 -0.03968789 0.00518499 -0.00967160 0.00006682 0.00007699 0.00011079
112 1 26.753724 19.203417 25.378228 -0.01092166 -0.00531122 -0.03678151 -0.00009112 -0.00017665 0.00013380
113 1 9.099846 21.851369 31.700207 0.02388175 0.00862357 0.00063907 -0.00001284 0.00003319 -0.00076169
114 1 21.511712 2.163466 28.209933 -0.00109424 0.01277284 -0.00320393 0.00005484 -0.00011855 0.00003997
115 1 7.047653 28.986539 25.944175 0.02475497 0.01212969 -0.02222181 -2.31808826 1.24070653 -5.62470630
116 1 5.088764 16.963012 12.999271 0.04741855 -0.04910183 0.03449151 0.00002605 0.00019733 0.00009602
117 1 9.795492 23.242461 1.031694 0.00639676 -0.02170418 -0.03058810 0.00049502 0.00076890 0.00131712
118 1 29.923844 19.616771 5.505176 0.00937782 0.02609656 0.01824449 -0.00011855 0.00009864 -0.00002672
119 1 36.034703 9.885823 14.884180 -0.02672533 0.01122736 0.01522218 -0.00001783 0.00006227 0.00000157
120 1 8.398642 12.945241 1.291601 -0.04764879 -0.03420971 -0.00857859 0.00000971 0.00006993 0.00018916
121 1 35.923811 4.356530 13.984913 0.02083495 -0.01422332 -0.00460822 65277.90993577 -30819.86413690 29325.79427852
122 1 23.153606 25.550278 3.095427 -0.00588532 0.03463574 -0.02337236 -0.00009182 0.00016973 -0.00007288
123 1 35.562656 24.825051 20.291583 0.01363580 -0.04467404 0.03414433 -0.00001246 -0.00018116 0.00008223
124 1 38.476072 9.795349 2.003233 0.03521417 0.07329622 0.00344422 -0.00005401 -0.00010116 0.00008381
125 1 23.604227 20.599144 18.442921 -0.04002415 -0.00227771 -0.00949530 -0.00001789 0.00005184 0.00005601
126 1 30.899231 12.591807 21.941841 -0.01258778 0.05328296 -0.03366248 0.00019439 0.00001402 -0.00017448
127 1 13.558328 22.914610 36.932073 -0.02446072 -0.04056055 -0.04104109 0.00032206 0.00022999 -0.00005525
128 1 17.027373 3.967198 10.825104 0.02003431 -0.00979304 0.00325538 0.00009945 0.00007024 0.00005869
129 1 27.417896 5.644541 27.811870 0.00992611 0.00703759 -0.00793529 0.00007922 -0.00011324 -0.00003970
130 1 20.486384 31.233563 21.961391 0.01315261 0.08971909 -0.04761208 -0.00007631 0.00011423 0.00011018
131 1 6.805504 36.124392 27.341519 -0.03831970 0.06801713 0.05217405 -0.00001938 -0.00003181 0.00024498
132 1 38.392871 32.056300 21.945912 0.09943587 -0.00951561 -0.01158643 21861.83963488 -18042.42925327 -16500.55041343
133 1 25.338846 17.545707 11.107044 -0.03489455 -0.02483828 0.02717564 0.00014237 0.00002907 0.00005198
134 1 15.402234 4.271887 34.835925 -0.02012142 -0.01627817 0.04273290 -0.00006242 -0.00005072 0.00007742
135 1 5.377553 6.438979 5.511220 0.06771953 -0.00626514 0.00047000 15.49816076 -1049.73202335 -66.96796028
136 1 32.092552 24.073818 19.267748 -0.03807402 0.01828693 -0.00027845 2388.44538963 -2208.70292386 6488.30590126
137 1 18.184098 37.831203 32.433572 0.05957173 0.03817198 0.02498801 1.44756460 -0.83977059 -0.44922518
138 1 37.338055 1.921269 5.974861 0.01868473 -0.04867340 -0.00216556 -0.00001896 -0.00004499 -0.00022518
139 1 34.515398 1.895755 29.739609 -0.06157238 0.03347431 -0.03091929 -0.00003036 0.00004379 -0.00010287
140 1 7.473521 18.760393 16.160841 0.02125160 -0.00635989 0.02300596 -0.00003130 0.00002611 -0.00001481
141 1 18.404784 2.270344 12.265316 0.00053024 -0.00571867 -0.03550767 -0.00000062 0.00013864 0.00005500
142 1 35.039844 26.271402 28.052922 0.04472825 0.02472633 -0.00395618 -0.00023602 -0.00004492 0.00006163
143 1 10.395670 33.899419 0.534073 0.03244133 0.04385845 0.06357606 0.00019827 -0.00129431 -0.00089473
144 1 29.212519 19.634397 29.003573 0.02692341 -0.03717369 0.01045190 -0.00001097 -0.00011947 -0.00006030
145 1 38.419493 26.450959 20.492997 0.03047567 -0.02320417 -0.02135444 -0.00003609 -0.00010442 0.00009462
146 1 36.675613 4.997920 15.990832 0.04631616 0.04639797 0.02202980 -0.28005517 -0.23881358 -0.74699678
147 1 2.799657 18.343138 31.396814 -0.03840606 0.06526769 0.00517544 0.00024523 -0.00006648 -0.00001077
148 1 30.082446 12.843948 21.951473 0.01105715 -0.01683910 0.05445229 0.00001313 0.00000456 -0.00012400
149 1 3.548115 17.099507 33.165285 0.01526699 -0.03244390 0.00090219 0.00010014 0.00001302 -0.00015378
150 1 13.717806 19.095678 8.815601 0.04532289 -0.01655996 -0.05444646 -0.00012321 -0.00008643 0.00003521
151 1 7.233561 9.484957 36.404837 0.00862320 0.05502922 0.06077931 -0.00009825 -0.00003750 0.00002314
152 1 38.031605 23.175853 3.273004 -0.01435995 0.04912482 0.01471431 0.00004899 0.00004303 -0.00001767
153 1 34.376366 32.852452 20.912521 -0.06268102 -0.00597936 -0.06335032 -0.00117849 0.00013585 -0.00026734
154 1 20.946183 0.149570 31.251451 0.05925945 -0.00972063 0.04397740 -0.00074715 -0.00021326 0.00028785
155 1 1.188907 22.500584 15.372850 -0.01616271 0.00426340 0.00071056 -0.00008753 0.00000988 -0.00010070
156 1 16.790991 27.117600 13.112985 0.01028572 0.02879875 0.02777123 0.00016778 0.00001086 -0.00003924
157 1 5.451804 23.362890 15.973902 -0.05116731 -0.01154078 0.01859538 -0.00007274 -0.00008030 0.00006864
158 1 3.797246 12.687600 17.317769 -0.02421725 0.02781317 0.03504490 9753.35657176 -373.56961259 1064.32223135
159 1 21.229568 35.461288 33.424991 -0.03853416 -0.05037536 0.02770246 0.00110041 -0.00086394 0.00041551
160 1 15.257736 2.459327 13.174349 0.03107194 -0.00565711 -0.07128114 0.00018945 0.00034604 0.00002605
161 1 4.888642 12.645830 17.436764 0.01902184 -0.03815185 0.01429984 -9758.28165989 373.46951943 -1063.94952138
162 1 7.405406 13.906570 22.106505 0.00994282 0.02035822 -0.02992796 0.00002507 -0.00003661 0.00026586
163 1 20.053479 10.919923 26.938082 0.00543487 -0.05166821 -0.01455049 -0.00004818 0.00005854 0.00017628
164 1 7.239667 5.779319 13.041563 0.03778766 0.00127957 -0.02828468 0.00001229 -0.00003403 -0.00001005
165 1 5.319701 26.986816 26.566893 0.02125676 0.02661957 -0.05275524 0.02879725 0.03307006 -0.01053851
166 1 35.835414 15.024584 27.015646 -0.05926300 0.02517327 -0.01741129 0.00001381 -0.00006576 -0.00014908
167 1 30.678132 19.377561 0.695939 0.02075114 0.04665762 -0.00230508 -0.00006937 -0.00000553 0.00000422
168 1 8.233603 23.519942 33.338341 0.05210205 0.02378425 0.00917644 -0.00018236 0.00137395 -0.00174107
169 1 22.832924 9.663790 34.870845 0.01909692 -0.03221529 -0.00076037 -0.00014389 0.00002060 0.00004212
170 1 7.300219 12.391071 14.154413 -0.05364996 -0.03870731 -0.02377167 0.00041119 0.00005208 -0.00047113
171 1 37.749126 13.495055 26.148937 0.02936141 0.01674329 0.00863915 0.00005615 -0.00003225 -0.00011525
172 1 1.602520 17.352033 31.230049 0.00577567 -0.02395173 0.00731631 -0.00011240 0.00015837 0.00016488
173 1 29.297132 35.270102 14.385804 0.00779798 -0.04049228 -0.04914727 0.00017708 -0.00017643 -0.00000960
174 1 26.882610 36.499243 21.084792 0.00890174 0.00756561 -0.01347402 0.00009096 0.00019417 0.00018025
175 1 29.587247 33.177351 28.950058 0.01166734 -0.02732266 -0.04154964 -0.00010756 -0.00006009 -0.00012971
176 1 3.480875 15.996627 36.436541 0.06116757 -0.06572339 -0.01941412 -0.00007879 -0.00004123 0.00001055
177 1 11.208860 1.964576 15.893761 -0.01973103 -0.00314631 -0.01025800 0.00015587 0.00020251 0.00026016
178 1 36.109875 4.694448 27.038545 0.03014252 -0.03089848 -0.00681029 -0.00005877 -0.00009289 0.00035347
179 1 19.788867 30.286168 18.065421 0.01175528 0.02033301 0.04474543 0.00005527 -0.00002133 -0.00009882
180 1 19.801083 33.010564 31.138936 -0.02019908 -0.00656618 0.02383841 0.00012929 -0.00055806 -0.00021215
181 1 4.825118 37.658656 4.752851 -0.01001183 -0.03827367 -0.03227146 0.00006374 -0.00002447 0.00001960
182 1 18.043182 9.122237 7.702087 -0.03954947 -0.02966762 0.02818390 -0.00064519 -0.00052247 -0.00031492
183 1 8.448697 17.774584 37.355484 -0.00587702 0.00487179 0.01598752 -0.00008879 -0.00232330 0.00077861
184 1 19.378385 32.318673 29.884355 0.05817855 0.00117520 -0.00911357 -0.00013190 -0.00010036 -0.00003430
185 1 34.393075 36.085026 21.449167 -0.00927929 0.02437350 -0.05219221 0.00007934 0.00016737 -0.00003231
186 1 24.257756 34.094248 20.382412 -0.00288302 -0.01005337 -0.02463111 0.00015775 -0.00008082 0.00005383
187 1 16.450291 1.482006 26.225828 -0.01103484 0.00851081 0.03132186 -0.00028963 0.00007787 -0.00005264
188 1 16.697677 6.637474 8.240162 -0.04112570 -0.06949623 -0.00161277 -0.00002262 0.00001179 -0.00020151
189 1 14.336688 12.114397 15.799771 -0.01468311 0.01527443 0.00662558 -33464.82784712 16772.83608730 -20670.05788039
190 1 16.002277 7.400081 27.882918 -0.03885750 0.02943738 0.01055612 0.00012392 -0.00018666 -0.00009142
191 1 9.888999 12.061629 34.166015 0.05662311 -0.03940156 -0.00819473 0.00003434 -0.00009753 0.00002425
192 1 31.803169 20.139446 32.062641 -0.00331487 -0.03591463 -0.02641850 0.00003064 -0.00002398 0.00005997
193 1 30.613607 9.875897 23.732191 -0.03003579 0.03233520 0.07539242 -0.00003393 0.00003917 -0.00002398
194 1 18.602182 11.042192 29.669313 -0.02028936 0.07750283 0.03838797 0.00011622 0.00007077 -0.00013093
195 1 36.674531 25.548375 24.655088 0.04977351 -0.03645552 0.05524762 25997.51833805 14498.63973063 -6559.56679728
196 1 7.788213 0.212190 37.480633 0.05126220 0.01761101 -0.00975751 -0.00003450 -0.00019745 -0.00001204
197 1 36.147837 0.747574 23.111780 -0.00275905 -0.03055443 0.04160379 -262554.78617525 64870.81127788 -112258.55212797
198 1 17.513715 5.034944 15.992540 -0.03288418 0.04355044 0.01599383 570.54444842 814.09135427 -439.50107310
199 1 5.444966 37.480916 37.452986 -0.03942620 0.00531787 -0.01962732 -0.00014747 -0.00002128 0.00002528
200 1 18.743285 30.287201 9.376106 0.03506433 0.02018608 0.02681400 -0.00004553 -0.00004874 -0.00012916
201 1 33.013221 31.454513 21.630694 0.02129650 -0.02360007 -0.01516872 -0.00024007 0.00002699 -0.00000688
202 1 34.676894 27.620351 33.330581 -0.04924042 -0.01670997 0.01054309 -0.00004380 -0.00015457 0.00003277
203 1 5.557915 38.310334 28.003621 0.03538632 -0.03547909 -0.01954819 -0.00001800 -0.00012938 0.00011419
204 1 38.160790 0.516534 12.544009 0.00719183 -0.06118543 -0.03170078 0.00049026 -0.00061326 -0.00002905
205 1 33.232598 1.914328 21.257952 -0.01049761 -0.00453695 0.03254885 -191314.61700912 21779.70052755 -62966.11270279
206 1 1.977064 9.370071 16.363729 0.03277842 0.01691286 -0.01417988 -0.00082848 -0.00154681 -0.00048329
207 1 26.724571 27.538337 38.061474 -0.00160168 0.04041735 -0.01233604 -63.03960388 -37.90069042 -21.96486726
208 1 29.183864 29.112540 9.251808 -0.03495267 0.04048026 -0.03212136 -0.00005548 0.00003256 0.00000774
209 1 7.282486 13.951934 16.764782 -0.00883851 -0.00775632 0.04571020 0.00179680 0.00064815 -0.00038096
210 1 21.037928 5.578204 13.977465 0.07419989 -0.03868908 -0.01637374 0.00120499 -0.00007481 -0.00053244
211 1 19.559136 13.313644 11.167347 -0.05428729 0.03275076 0.02488811 0.01207654 -0.01510014 -0.00831026
212 1 21.209887 7.239145 28.144417 -0.01432009 0.00728341 0.06582851 0.00024690 0.00017301 0.00005181
213 1 21.477421 18.136989 9.508338 0.02014153 -0.02529837 -0.02500329 -0.00002803 0.00005876 -0.00000106
214 1 35.458625 0.464831 24.088964 -0.02090389 -0.03441464 0.02903627 1283.90015097 526.70791171 -1820.34796735
215 1 12.169986 28.499896 28.996135 0.00810593 0.05165548 0.05075774 0.00024204 0.00001610 0.00006140
216 1 28.672136 32.821424 29.276266 -0.05951401 0.02503492 0.06194215 -0.00011274 0.00019931 0.00001889
217 1 33.649382 19.298912 14.882465 0.02263417 0.00984839 -0.01730512 19010.63511250 28000.00772456 -284021.60284087
218 1 2.488703 34.023691 20.292845 0.05769087 0.06669341 0.02291526 0.00179312 0.00123164 -0.00122805
219 1 30.637928 35.623081 25.570521 -0.01248458 0.00627036 -0.03521301 -3.40487982 -17.75832441 -5.94599043
220 1 10.900234 28.547821 6.088210 -0.00249555 -0.01083175 -0.02478966 -15.65483507 -17.08730387 -13.31973563
221 1 14.552989 35.554286 34.526688 0.02521705 -0.00123957 -0.01411601 -815.91243375 866999.97928721 -1303706.40349833
222 1 25.414427 26.756178 37.598040 -0.00686226 -0.02042123 0.02503309 62.61155294 37.37917901 22.14747949
223 1 7.963746 6.884087 3.010541 0.00891415 0.03937250 0.01869781 0.00161525 0.00037794 -0.00174182
224 1 3.184160 9.341486 9.547163 -0.04458667 0.00816372 0.05729966 -0.00845385 -0.02859454 -0.00394069
225 1 37.594184 26.594528 23.474547 -0.05382402 0.02004096 -0.01275231 -6.45973835 -7.34855113 8.29222096
226 1 25.947154 20.444977 24.506969 0.00593341 -0.06947384 0.02815194 23162612.58845060 1644180.06261476 -728850.02913305
227 1 17.359085 8.274793 34.362420 0.00977128 0.04482038 -0.01314483 -0.00024208 -0.00002943 0.00003939
228 1 28.134748 17.775244 11.028065 -0.03737125 -0.04084916 0.00260777 -0.00003185 0.00002770 -0.00013087
229 1 33.375542 19.222712 32.482274 0.03485793 0.09445335 0.01984736 26.11125664 2.89374226 -20.47254515
230 1 30.907679 20.290506 33.040134 -0.01066243 -0.01022139 0.01337779 0.03318306 -0.01425704 -0.00731578
231 1 29.884731 9.575094 4.703895 0.01882975 -0.03306108 0.02069722 -0.00006218 -0.00004716 -0.00001433
232 1 23.290235 31.609548 5.174970 -0.03579998 -0.01964604 0.03391592 -0.00009717 0.00014536 0.00007461
233 1 28.026718 36.918159 32.342028 0.01154234 0.08471055 -0.04218010 0.00023544 -0.00133932 -0.00145477
234 1 20.942982 14.479962 29.257018 -0.06750968 -0.01533223 -0.01704499 -0.00008827 0.00010921 -0.00006363
235 1 22.606674 6.582333 10.177454 0.00972386 0.02336709 0.03469289 0.00007420 -0.00050354 0.00008744
236 1 13.833868 12.201677 29.022440 -0.04377028 -0.03304775 -0.00303561 0.00005757 0.00008338 0.00020859
237 1 4.123259 10.318298 14.280431 -0.02150495 0.01083955 0.06394477 0.00008203 -0.00107543 -0.00138972
238 1 2.376223 18.182178 14.639883 -0.03769556 -0.01807558 -0.02624206 -0.00016988 0.00005757 -0.00004574
239 1 1.857392 22.185024 21.475146 -0.00568397 -0.04076134 0.00518051 0.00016171 0.00003497 -0.00011903
240 1 14.117021 37.356976 38.259789 0.03694542 0.01082332 0.00228604 -0.00023847 0.00050221 0.00126128
241 1 36.276167 14.184165 4.155295 -0.04331611 -0.02127967 -0.02248958 -0.00008454 0.00007824 0.00007652
242 1 3.615769 28.713948 8.988135 -0.00387032 0.02664832 0.00601023 0.00002995 0.00008058 0.00004870
243 1 30.952761 20.999014 13.792316 -0.02150817 0.05372865 -0.01397538 -8.79615995 20.57039019 -23.70940361
244 1 26.571399 24.820195 9.813667 -0.06376242 0.01029045 0.03824684 0.00003495 -0.00007078 -0.00006580
245 1 8.679648 29.410994 1.443650 -0.00102407 0.03031485 -0.01628055 -0.00083088 -0.00067964 0.00063166
246 1 0.114434 31.360505 36.645923 0.02466655 -0.00439032 0.00112298 119.47727790 13.70843294 -162.76827328
247 1 27.741377 24.412267 15.015987 -0.00434789 0.00698869 0.04562367 -0.00025843 0.00025568 -0.00000263
248 1 20.757232 16.024910 5.010688 -0.02396937 0.03062679 0.03125501 -0.00001223 0.00019853 -0.00018620
249 1 23.997826 7.018407 18.711609 -0.06424468 0.00702794 -0.01950242 -0.00013133 -0.00012553 0.00004386
250 1 0.754124 33.192896 37.501489 -0.01148407 -0.06114789 0.02506396 -0.51947363 -1.48750079 -0.69447372
251 1 20.993646 27.066799 14.690037 -0.01090477 0.00054104 -0.02772842 0.00004375 0.00025259 -0.00003643
252 1 5.864988 26.302460 15.793494 0.02772780 -0.00666550 0.01210356 1888.34931743 498.26107265 1910.78452016
253 1 35.593842 31.088356 12.170368 0.04331503 -0.00500537 -0.01208396 -0.00018854 0.00003026 -0.00005687
254 1 15.028743 18.327315 28.478260 0.02189598 0.02760712 -0.01943448 -0.00012268 -0.00001134 -0.00003594
255 1 19.423093 15.530989 12.440887 0.00141346 -0.01628794 0.01106340 -0.00008938 0.00022241 -0.00003539
256 1 14.132633 24.391530 34.094960 -0.00724248 0.00031763 0.00714133 -51.06465375 548.33462762 -429.67227813
257 1 14.439897 0.289504 15.793037 -0.05204044 0.05446875 -0.02146944 0.00018912 0.00073061 0.00104503
258 1 25.239362 29.034239 15.655290 0.00098735 0.01106931 -0.03998019 -0.00009104 -0.00008472 -0.00000536
259 1 16.449499 4.354873 4.522120 -0.07710557 0.07913652 -0.04500715 -0.00001023 -0.00016188 0.00015671
260 1 13.532771 16.804629 23.859844 0.05137151 -0.02526523 -0.01826881 -0.00005858 -0.00000844 0.00003309
261 1 14.755232 26.790985 26.529995 -0.01669386 -0.00747504 -0.03642016 0.00013269 0.00010541 -0.00021970
262 1 19.425748 1.304344 10.639912 0.03966952 -0.00849893 0.03224150 0.21497270 0.24830034 -0.06918102
263 1 5.550393 33.363368 33.056937 0.01239802 -0.02734487 -0.00091291 -0.00000579 -0.00010180 -0.00008995
264 1 6.549424 30.777976 30.112453 -0.00417648 -0.05060230 0.00576552 0.00007477 0.00028311 0.00053183
265 1 22.271434 37.179049 6.798357 -0.00720400 -0.03999735 0.02038492 0.00003343 -0.00021570 0.00005592
266 1 0.395012 23.422892 22.040492 0.01663802 0.02763780 0.01452666 0.00078453 -0.00084918 -0.00095918
267 1 17.502649 28.876216 12.249228 0.05560951 -0.01537163 0.03829986 20.91625540 14.39059402 -2.64979589
268 1 3.296347 2.096794 8.257703 0.00727922 0.03348280 -0.03394855 -0.54580226 0.21956142 -0.43407392
269 1 13.597813 3.103122 35.656834 0.04853193 -0.00705292 -0.01351484 -0.00002174 0.00006334 0.00002580
270 1 17.498466 4.595552 13.115833 -0.00687851 -0.00024156 -0.03727898 -0.00030331 0.00244571 0.01181396
271 1 35.971231 16.103783 27.219635 0.02499775 0.01323892 0.05892983 -0.00004141 0.00000499 -0.00005950
272 1 20.702696 7.358261 11.476001 0.02391363 0.02591201 0.03316694 -0.00006885 -0.00099487 0.00036635
273 1 9.327546 37.227119 19.586837 0.07405132 0.03863025 -0.02715071 0.00009785 0.00025515 0.00235063
274 1 34.309809 14.467580 30.396746 0.00341684 -0.04162677 -0.03228901 -0.00004824 -0.00041500 -0.00006475
275 1 3.632713 26.554489 10.143612 0.04808341 0.03385834 -0.04213078 -1465.37493456 336.80530123 437.61975649
276 1 26.607408 33.164244 32.368334 -0.00683328 -0.01567780 -0.02554807 -0.00000068 0.00010568 0.00001903
277 1 31.403248 25.586031 31.168421 0.04056454 0.01884396 0.07327968 0.00019609 0.00005689 -0.00003334
278 1 34.106134 17.513727 19.528775 -0.01358831 0.06987533 0.00158035 0.00022080 -0.00009895 0.00046595
279 1 27.380018 36.913331 16.176999 -0.01450989 -0.01908970 0.02562023 -0.00003430 -0.00007435 0.00009565
280 1 8.099694 34.532722 22.403500 -0.01585233 -0.01116754 0.00612895 -0.00092786 -0.00172483 -0.00023817
281 1 7.641633 14.950254 8.418180 0.01420290 0.01300122 -0.04010127 0.00008831 -0.00001128 0.00006136
282 1 28.722679 5.968140 16.680916 0.03154973 -0.02957127 0.06095491 0.00008367 -0.00002015 0.00021678
283 1 4.924164 15.541633 34.196741 0.00443206 0.04988848 -0.05076567 -0.00006280 -0.00003337 0.00011787
284 1 32.590560 36.784442 17.988100 0.01728001 -0.00617962 0.04524601 0.00000426 -0.00035265 -0.00038834