LAMMPS data file for silica system 43

3220 atoms
2 atom types

0.0 36.207410 xlo xhi
0.0 36.207410 ylo yhi
0.0 36.207410 zlo zhi

Masses

1 28.0855  # Si
2 15.9994  # O

Atoms  # atomic

1 1 0.748361 14.612768 5.600785
2 1 14.692514 6.048610 11.688363
3 1 17.714130 0.103422 19.457711
4 1 34.371563 16.842288 25.079625
5 1 9.166434 9.939592 28.837244
6 1 16.759788 0.747070 20.579251
7 1 12.669425 13.505034 8.119571
8 1 4.818786 1.401788 10.828679
9 1 9.078981 21.080052 2.937053
10 1 21.960767 0.896896 0.162599
11 1 19.344191 29.074821 9.244611
12 1 18.426416 5.530608 31.136819
13 1 14.348580 3.811065 26.277098
14 1 27.481135 3.599912 17.136134
15 1 8.346333 3.631602 27.395191
16 1 22.543523 11.806387 7.308018
17 1 11.766405 24.157963 19.991630
18 1 14.439122 1.397970 15.542795
19 1 4.916370 21.302548 32.444033
20 1 20.972634 22.216853 3.791830
21 1 3.239977 33.820771 28.377991
22 1 5.832116 4.631053 27.747815
23 1 26.431667 19.528966 16.002846
24 1 16.548113 34.988219 1.103231
25 1 1.432917 18.193811 13.666313
26 1 1.896637 22.432513 24.614241
27 1 3.947143 16.826006 25.563824
28 1 20.602855 6.164321 13.748961
29 1 14.110928 20.456803 0.176722
30 1 2.468313 20.224973 6.569024
31 1 35.273146 34.561994 4.864096
32 1 3.071373 32.717982 25.034292
33 1 31.052123 15.818252 35.033652
34 1 21.584373 30.076488 9.864433
35 1 24.269650 7.254516 0.408429
36 1 7.167980 19.873726 7.045536
37 1 10.217113 15.005371 31.308409
38 1 29.889947 4.964745 24.040034
39 1 33.596467 11.517236 8.030930
40 1 27.107640 35.099008 19.211699
41 1 27.086487 24.427760 4.116988
42 1 33.909024 1.094163 27.449814
43 1 13.505283 11.019504 20.576345
44 1 16.809494 29.731725 31.023086
45 1 30.886009 9.906333 6.330344
46 1 27.508438 13.106307 2.051050
47 1 23.975763 0.082626 26.028781
48 1 20.116060 33.216198 4.494451
49 1 24.851562 19.056584 29.256608
50 1 20.313813 36.161817 14.329977
51 1 12.058204 33.359462 5.634226
52 1 30.177457 10.793347 23.583675
53 1 0.375697 21.298214 13.340192
54 1 8.772543 1.312609 29.247829
55 1 5.708311 18.803540 6.258075
56 1 2.792270 8.191399 29.051893
57 1 27.845178 0.264603 19.807306
58 1 32.747717 17.768534 16.291717
59 1 33.514542 20.454870 23.366788
60 1 4.682605 7.017401 10.053251
61 1 9.787339 17.326762 34.483971
62 1 22.446596 20.004675 14.447363
63 1 31.155630 9.179775 27.923392
64 1 21.526885 14.971532 22.120348
65 1 35.224944 8.815247 24.628330
66 1 17.056764 10.417506 12.282242
67 1 11.072192 16.205811 18.540020
68 1 9.387915 21.252947 22.536084
69 1 14.614684 15.938968 13.484149
70 1 32.956890 6.171692 13.921988
71 1 5.471556 17.169578 27.388376
72 1 9.596061 33.317137 17.778487
73 1 5.868207 8.166284 20.060922
74 1 6.045381 32.347062 10.438900
75 1 0.178028 1.685455 8.008239
76 1 33.197632 7.330720 19.695508
77 1 19.337423 6.888131 28.951969
78 1 9.436430 28.878760 2.183173
79 1 35.752077 17.552784 30.505333
80 1 29.287753 28.970268 18.957319
81 1 8.163895 27.277479 34.824485
82 1 10.495270 32.376887 1.543388
83 1 21.224027 34.211575 21.801359
84 1 15.168894 23.134486 8.536853
85 1 26.200898 35.634037 3.118372
86 1 1.361943 15.349344 0.391300
87 1 3.029136 10.942124 10.774428
88 1 33.585907 26.127478 6.880424
89 1 25.560179 19.738486 27.321097
90 1 7.858124 32.377176 35.875605
91 1 7.183989 15.456922 5.019800
92 1 17.251786 27.460746 16.910313
93 1 0.954102 10.901394 14.038778
94 1 0.623629 29.120640 31.527260
95 1 9.301765 22.461419 31.752766
96 1 9.018166 23.762129 35.610463
97 1 31.314207 22.182956 10.051602
98 1 23.410778 26.904238 24.377740
99 1 31.913036 31.604603 17.013515
100 1 20.511573 0.883745 9.585469
101 1 30.829862 23.111866 35.756668
102 1 19.906676 3.180480 25.698218
103 1 24.772007 30.724010 10.824757
104 1 17.270561 9.290337 6.860023
105 1 1.624899 28.854009 18.363663
106 1 4.585308 5.379621 6.191409
107 1 24.982417 32.397855 24.186182
108 1 32.355974 25.197822 32.617018
109 1 8.370276 2.441786 28.910940
110 1 23.085747 28.711819 5.172550
111 1 18.818476 32.557336 18.831824
112 1 35.909390 12.632995 12.859226
113 1 3.573250 31.542144 6.529645
114 1 10.890196 19.299761 22.932568
115 1 8.150881 27.180610 3.299633
116 1 5.237735 20.800618 8.585047
117 1 5.077515 30.066237 24.491483
118 1 17.715007 32.836486 33.439249
119 1 17.435199 0.616114 12.877899
120 1 3.947387 4.061998 33.505311
121 1 10.504851 1.716176 32.319875
122 1 24.537828 32.839690 3.353254
123 1 13.547229 0.337262 9.306032
124 1 27.764903 16.682058 0.659259
125 1 14.281422 8.335332 17.481434
126 1 17.591307 32.129857 22.197699
127 1 4.751126 34.122098 4.884817
128 1 14.656033 10.006777 28.768216
129 1 11.237555 33.528025 16.352362
130 1 33.549856 17.004499 11.564388
131 1 17.635665 10.420085 21.131946
132 1 32.085117 0.746102 10.028518
133 1 28.814162 5.302399 23.597960
134 1 13.842256 15.550930 10.501433
135 1 3.317266 1.824074 18.226051
136 1 8.635290 16.454389 35.459174
137 1 27.951414 34.230180 35.401512
138 1 32.447581 3.204539 26.933556
139 1 19.303378 22.811546 6.165739
140 1 23.854235 19.047882 26.357133
141 1 13.407140 33.016744 1.262424
142 1 6.865713 0.096487 8.997540
143 1 0.223638 26.258370 26.221966
144 1 29.382484 32.369761 11.587807
145 1 1.861170 19.740731 7.120413
146 1 24.435727 15.343116 28.717038
147 1 24.268367 26.040871 12.723349
148 1 11.313938 22.703203 36.024410
149 1 5.142952 21.816260 5.391504
150 1 8.527991 4.849640 34.201480
151 1 16.610350 18.561545 18.607982
152 1 9.181372 4.530173 0.038842
153 1 3.276542 15.169557 33.100907
154 1 13.532711 30.566600 27.357479
155 1 12.781238 20.945240 13.812426
156 1 9.617709 3.297122 25.252857
157 1 22.310476 28.997780 16.691676
158 1 32.068980 33.698637 27.895708
159 1 2.000403 26.263195 12.753109
160 1 20.080301 24.615455 0.244320
161 1 10.996323 27.852154 28.334170
162 1 35.155267 16.854772 24.834899
163 1 24.687393 26.674568 28.525256
164 1 18.120519 27.607339 3.756894
165 1 20.734812 24.318601 14.740035
166 1 2.014948 11.536130 24.116456
167 1 13.464483 20.793710 19.636452
168 1 33.100893 6.319877 24.082683
169 1 20.657662 2.442580 17.987552
170 1 27.825290 26.552267 33.173086
171 1 17.235335 15.923710 3.013893
172 1 3.091334 33.940301 6.441567
173 1 12.211207 32.099766 31.775252
174 1 32.804939 35.009450 1.855304
175 1 35.806616 16.647164 8.884078
176 1 29.124453 0.794342 33.447729
177 1 9.208017 26.115598 35.604837
178 1 8.641267 8.247922 24.850690
179 1 21.809734 23.842674 16.540209
180 1 26.104564 1.137405 34.085030
181 1 13.916617 19.432283 30.111451
182 1 34.493498 29.812952 2.501677
183 1 25.329715 34.570870 16.152351
184 1 0.516848 21.595521 14.109272
185 1 22.669349 16.602785 14.227304
186 1 6.611283 4.379890 30.553156
187 1 1.621924 32.136731 0.264182
188 1 32.095371 7.908106 28.378551
189 1 18.394341 2.252393 16.700235
190 1 6.267787 22.316927 3.195170
191 1 14.637132 3.433485 23.817560
192 1 7.878174 12.726760 14.010734
193 1 3.899181 5.782636 35.037257
194 1 33.325825 16.086254 11.104076
195 1 9.280071 11.689593 29.163910
196 1 7.655537 21.398901 1.886326
197 1 6.876469 27.846364 8.547178
198 1 16.349764 22.584184 31.993630
199 1 24.700976 23.401324 36.196596
200 1 5.850516 5.510794 7.764877
201 1 26.343123 13.815187 1.674824
202 1 3.697875 21.383777 21.208111
203 1 33.513856 4.844341 17.952815
204 1 6.924624 34.538088 22.987421
205 1 7.861664 23.291793 11.830167
206 1 28.313486 16.197585 19.657719
207 1 30.241399 16.851643 0.197317
208 1 24.895162 31.689092 9.855744
209 1 0.533523 35.587699 7.091165
210 1 9.419100 18.636431 35.349985
211 1 8.787825 12.661487 34.938604
212 1 33.250518 14.142513 27.585549
213 1 1.480588 28.664874 22.677407
214 1 35.042866 16.068315 27.975334
215 1 11.670970 32.100565 13.237712
216 1 31.266651 34.830004 3.284578
217 1 11.515499 30.214066 6.380801
218 1 35.686741 26.935032 7.719747
219 1 8.031020 14.614177 9.499315
220 1 1.605195 21.431665 26.511791
221 1 12.205354 34.973364 1.527563
222 1 34.005114 12.780315 9.897920
223 1 2.026007 1.319925 30.256405
224 1 5.556384 26.277202 29.126193
225 1 23.299669 16.722074 7.604367
226 1 5.668996 34.283980 26.465546
227 1 14.802069 22.825361 32.319045
228 1 19.585158 25.779019 21.704186
229 1 35.846013 21.995828 13.237013
230 1 4.924258 4.887518 30.853553
231 1 31.766760 17.893563 23.835020
232 1 19.978224 17.499188 1.625144
233 1 23.493553 10.089799 11.558908
234 1 19.592958 0.890753 30.212124
235 1 5.601596 26.635462 18.358452
236 1 3.918516 7.196633 18.220229
237 1 12.939911 16.888154 32.258210
238 1 13.556132 1.314749 19.586278
239 1 18.173320 17.126518 12.523148
240 1 30.326923 7.566645 22.512622
241 1 35.412134 30.337056 21.378897
242 1 29.349085 5.173284 6.853211
243 1 14.123074 30.651164 5.849153
244 1 9.702472 30.654648 26.299566
245 1 27.486281 33.894929 15.454475
246 1 6.135674 15.818413 1.599236
247 1 20.677312 28.378778 9.141095
248 1 31.857506 32.546486 25.484417
249 1 22.843666 1.855472 2.428702
250 1 22.707802 26.870710 1.275695
251 1 27.430698 28.459010 13.815079
252 1 25.791080 12.650784 20.211490
253 1 9.475956 12.158453 27.834349
254 1 3.257820 15.950571 12.767391
255 1 24.533943 16.588213 16.640090
256 1 34.321329 24.977080 13.265307
257 1 34.999559 3.117874 2.238047
258 1 5.444457 15.201553 28.326004
259 1 23.993636 17.641705 26.318335
260 1 24.106655 34.384270 32.036038
261 1 35.042491 27.484770 0.599201
262 1 28.206238 24.596973 19.088570
263 1 10.702584 4.362759 31.484190
264 1 31.351397 26.772409 28.685112
265 1 13.994851 21.245368 30.851694
266 1 28.240231 23.556267 12.793404
267 1 17.546729 7.873444 4.901017
268 1 3.374717 23.610515 19.199928
269 1 21.432522 1.799727 29.700385
270 1 4.338679 26.426997 34.681973
271 1 8.056391 4.009897 0.043052
272 1 18.035223 31.588189 27.411407
273 1 5.391175 20.599126 1.568544
274 1 32.618231 8.612127 14.855222
275 1 32.899132 1.273037 21.305842
276 1 6.050765 26.197747 10.833707
277 1 10.240030 25.484136 34.405053
278 1 30.809034 15.520802 15.939236
279 1 31.564730 10.053489 21.852207
280 1 16.020762 26.698714 33.285862
281 1 29.857626 2.131145 14.758646
282 1 11.767908 6.164080 18.685565
283 1 1.359841 28.765906 19.103956
284 1 0.239017 17.007191 22.634939
285 1 32.208518 18.144752 14.017637
286 1 0.605562 26.499152 5.868949
287 1 16.162999 11.254322 30.185028
288 1 1.222848 0.023751 21.172314
289 1 10.487286 25.248153 13.504973
290 1 0.589824 33.963746 12.076991
291 1 33.181829 21.202284 8.292280
292 1 33.508059 33.690552 5.018705
293 1 22.775163 10.831567 14.863657
294 1 15.721877 31.998453 36.105790
295 1 29.520373 1.831538 4.243327
296 1 19.015555 24.842975 28.591365
297 1 29.479241 8.968622 5.301708
298 1 18.714304 17.601592 13.438290
299 1 29.888647 22.682669 25.882564
300 1 24.681252 32.219385 10.456583
301 1 25.786034 7.844317 6.180618
302 1 16.184163 12.564983 10.842718
303 1 34.853488 15.140811 30.472201
304 1 17.739842 30.664295 8.642723
305 1 2.365210 18.157265 21.113602
306 1 33.131523 22.860381 18.217679
307 1 34.766794 23.393698 20.578387
308 1 16.884365 20.867087 25.526880
309 1 17.884567 22.843264 24.788903
310 1 31.936751 15.712903 8.424681
311 1 1.512175 30.687553 16.630368
312 1 16.145373 31.625964 0.340266
313 1 33.444419 18.188666 20.612495
314 1 0.088663 15.704791 31.683536
315 1 12.121157 35.262091 18.184976
316 1 34.919113 14.521709 22.007712
317 1 25.397961 6.344601 9.236034
318 1 16.827243 35.498177 25.910230
319 1 25.255176 25.938464 28.201238
320 1 18.110252 8.414209 36.172975
321 1 35.968566 9.290488 28.472314
322 1 32.729969 3.101872 14.725108
323 1 16.117473 25.497243 25.483361
324 1 17.896846 15.191180 21.125314
325 1 18.043151 15.135408 11.774348
326 1 31.528505 24.838657 30.793614
327 1 18.408687 10.657846 11.807226
328 1 8.500365 26.709199 6.908015
329 1 11.488786 13.798856 30.031335
330 1 31.978571 6.386250 8.178293
331 1 13.614063 22.450614 12.459351
332 1 21.117688 20.942112 27.369063
333 1 29.841230 1.070468 22.825648
334 1 1.507392 31.174591 26.355004
335 1 25.456842 1.506524 15.330230
336 1 9.450550 27.409432 34.447445
337 1 9.639618 5.394439 5.789826
338 1 36.097982 24.298810 10.457721
339 1 15.019957 1.104861 23.807349
340 1 16.189367 20.064024 29.012515
341 1 6.749278 29.725083 13.514394
342 1 15.599907 13.096698 29.468335
343 1 1.200539 2.257374 25.406798
344 1 11.914203 36.189758 26.304477
345 1 12.051135 10.924356 7.886188
346 1 18.061135 14.695623 32.970318
347 1 20.979979 21.592515 16.960167
348 1 36.205819 16.418926 20.642210
349 1 20.896892 7.531755 7.431559
350 1 11.473184 2.617701 20.815423
351 1 2.301587 0.806666 26.294754
352 1 15.741179 29.082384 25.808220
353 1 22.147564 22.958600 9.062760
354 1 20.126680 11.019153 25.747521
355 1 11.935190 15.067900 34.210282
356 1 0.674143 12.054546 3.257619
357 1 0.252686 29.711821 2.688746
358 1 26.292591 31.237668 14.245240
359 1 8.700343 25.982277 0.724028
360 1 28.087870 24.732666 15.736165
361 1 16.683394 11.222629 25.019782
362 1 13.149116 3.782938 3.827867
363 1 17.867118 18.001050 7.595153
364 1 27.005395 1.723897 5.229166
365 1 7.589092 7.724189 13.372584
366 1 30.276503 24.584176 33.268270
367 1 16.222329 29.642884 2.555197
368 1 28.963682 23.169706 26.369165
369 1 9.286899 31.645314 21.669311
370 1 19.393565 1.799325 25.246837
371 1 35.067633 5.889426 6.823596
372 1 5.508738 30.086621 30.594994
373 1 22.108747 1.390761 15.195175
374 1 18.011755 22.108326 35.681911
375 1 31.646596 30.909126 5.779956
376 1 7.226803 18.975204 6.046564
377 1 8.204381 7.011504 8.217343
378 1 17.328089 28.672251 23.908577
379 1 16.870627 10.452552 17.650251
380 1 24.931440 32.544791 24.875409
381 1 31.946380 32.681353 23.284045
382 1 26.913775 8.992030 6.786090
383 1 0.051904 7.146961 8.834101
384 1 8.569189 10.903688 19.657898
385 1 2.384348 3.330487 15.903042
386 1 11.141466 29.640463 30.726025
387 1 22.994152 9.073333 24.737168
388 1 18.740561 29.693947 10.789312
389 1 29.248173 18.431262 2.471941
390 1 6.738362 28.720866 16.229794
391 1 2.699914 27.373703 3.243584
392 1 25.820602 23.368463 0.833509
393 1 32.771751 4.927271 3.344978
394 1 2.620861 13.711052 20.662734
395 1 30.064990 34.642468 5.353243
396 1 15.336145 12.021371 2.771942
397 1 1.377261 27.799834 27.535747
398 1 9.148383 24.460837 23.305593
399 1 19.247353 33.101421 5.413867
400 1 36.109396 2.173149 23.305662
401 1 5.667057 24.744666 6.675053
402 1 2.234641 26.497597 12.759776
403 1 2.319899 28.330638 9.734846
404 1 24.305502 7.157402 11.372601
405 1 28.860686 1.642321 29.918350
406 1 17.794062 18.438275 11.667149
407 1 25.630744 21.458388 20.642152
408 1 10.658496 14.177350 7.658159
409 1 27.977304 31.758565 12.318075
410 1 10.947335 15.195764 24.982183
411 1 32.160750 7.567792 19.989733
412 1 35.485259 13.227861 23.561154
413 1 22.544963 31.765842 24.849668
414 1 21.287412 16.219672 21.567444
415 1 31.156910 0.342880 5.705967
416 1 20.963258 33.104273 32.447691
417 1 10.449805 22.146152 27.416929
418 1 5.790226 16.131821 29.296584
419 1 18.958008 17.820866 25.624330
420 1 29.843809 28.509062 2.911412
421 1 0.287511 25.346874 13.926913
422 1 6.332396 25.678439 31.137144
423 1 1.247800 28.336927 14.678317
424 1 20.373032 7.825548 7.651345
425 1 22.914602 23.761972 3.346974
426 1 21.945822 17.064539 6.157643
427 1 17.217789 20.558988 29.717960
428 1 8.214077 20.833922 15.092069
429 1 9.762079 26.115473 22.464802
430 1 2.348144 26.139242 28.916178
431 1 9.790736 17.497459 21.420419
432 1 22.772512 26.637897 21.516979
433 1 2.726816 9.633579 24.659816
434 1 31.512457 19.585868 1.047049
435 1 28.905170 19.027049 17.243313
436 1 0.928982 30.329116 23.513704
437 1 14.149213 2.115604 8.368231
438 1 18.434414 1.408866 15.703496
439 1 5.308125 21.529519 31.449493
440 1 24.847992 4.267418 13.548236
441 1 20.302019 24.122363 35.911995
442 1 2.119004 30.376297 3.331334
443 1 11.289465 29.483717 0.562919
444 1 23.732265 13.411124 9.047372
445 1 10.750479 23.598234 7.609151
446 1 30.112441 5.551810 10.715422
447 1 14.129979 1.665385 5.926575
448 1 7.908938 26.128300 2.110186
449 1 1.944293 27.052911 22.502644
450 1 1.451090 20.762703 27.922482
451 1 6.365629 1.965930 7.210712
452 1 2.620070 21.076544 10.276375
453 1 5.745244 16.540045 17.126206
454 1 8.894050 34.414522 14.868299
455 1 12.594550 19.553780 35.450608
456 1 32.483543 0.325844 18.377175
457 1 4.225473 23.309131 0.096238
458 1 18.579867 30.255705 34.648771
459 1 31.040674 0.935308 0.999480
460 1 23.933697 15.575216 19.085819
461 1 10.918037 8.258604 12.054461
462 1 25.944245 13.649854 22.847246
463 1 10.452735 21.321396 8.363608
464 1 0.486051 2.509529 22.652726
465 1 20.838349 1.240127 9.264389
466 1 4.422239 20.480145 25.516876
467 1 34.154511 7.310466 8.982161
468 1 2.566224 19.926866 27.287432
469 1 33.334077 20.167569 9.817141
470 1 11.218000 20.414370 34.238359
471 1 5.082682 8.119965 10.898987
472 1 11.219485 7.366598 4.264601
473 1 18.214437 1.698388 30.250334
474 1 11.266704 35.107062 35.095678
475 1 5.845111 23.350756 33.184377
476 1 0.300353 9.216777 25.407094
477 1 24.214626 0.533813 18.381379
478 1 1.703953 19.703094 14.734547
479 1 1.753575 33.348263 27.166669
480 1 18.926898 7.221518 15.054408
481 1 23.625293 25.795170 24.200375
482 1 2.050466 29.375068 13.667327
483 1 15.543744 17.686829 22.213401
484 1 8.338540 25.196477 23.165066
485 1 4.891267 13.467998 6.012755
486 1 34.362720 19.945071 24.271520
487 1 6.664693 7.164832 20.011709
488 1 12.046519 22.630852 10.330596
489 1 28.261881 4.209601 9.812419
490 1 23.334805 35.853759 35.325661
491 1 5.234037 25.197338 2.092695
492 1 13.395176 21.495517 34.970725
493 1 14.845729 8.959947 28.919685
494 1 0.264854 29.027028 27.949766
495 1 11.071441 19.044843 3.513902
496 1 12.164004 24.824094 26.161574
497 1 0.425554 19.176352 35.324381
498 1 15.773724 2.714748 18.650859
499 1 23.446615 4.731394 0.683923
500 1 20.741607 24.483510 1.683800
501 1 32.243688 33.930322 13.739032
502 1 17.937804 30.232381 15.699252
503 1 25.367459 24.311904 16.300872
504 1 7.545963 12.563458 33.317552
505 1 17.532482 7.926734 29.965892
506 1 34.770091 21.291887 8.297626
507 1 25.098206 27.077085 12.924985
508 1 12.790550 18.898443 7.558836
509 1 11.570149 28.376259 14.501806
510 1 9.636210 13.074040 20.826263
511 1 9.189517 32.752502 34.000855
512 1 4.175591 21.821212 2.535339
513 1 11.898325 35.949486 2.691579
514 1 29.679577 4.172490 21.460683
515 1 12.211526 30.631791 6.571963
516 1 10.749749 22.966217 16.783183
517 1 3.527608 23.965027 34.437187
518 1 14.648768 21.748981 3.059842
519 1 2.683294 15.268357 26.630299
520 1 10.370209 17.341869 28.547448
521 1 35.101758 9.513741 19.551408
522 1 4.678257 6.627685 23.810728
523 1 30.920861 17.010896 6.383373
524 1 34.874287 17.209063 4.197818
525 1 27.498851 25.940320 20.388010
526 1 23.801050 27.907490 2.460747
527 1 15.911502 20.051483 33.499863
528 1 18.433132 26.287976 33.434440
529 1 24.294744 7.966883 18.465118
530 1 35.367381 33.367528 31.626116
531 1 33.555476 13.274504 19.720332
532 1 31.212950 10.028690 34.564093
533 1 24.616748 4.831910 8.406259
534 1 23.223155 24.476961 30.166579
535 1 3.889473 30.923202 19.824323
536 1 10.767282 31.656262 29.931399
537 1 8.926966 18.000434 33.597037
538 1 34.714351 23.088105 12.813079
539 1 1.388161 29.891348 4.973329
540 1 25.191670 30.448946 1.541069
541 1 27.872947 5.248043 24.240623
542 1 15.093626 19.295854 20.258654
543 1 7.151707 5.024491 0.463856
544 1 32.172542 7.407121 2.146063
545 1 8.631611 32.256325 34.981649
546 1 1.815022 35.295189 24.704795
547 1 26.522703 26.727803 6.099655
548 1 13.462246 4.459976 3.397902
549 1 13.321259 21.146244 22.186000
550 1 9.272016 35.201716 17.247801
551 1 1.999690 18.013710 22.319912
552 1 2.787876 34.098829 12.563883
553 1 10.675545 3.691387 22.779215
554 1 22.796006 10.148607 7.895509
555 1 15.106583 22.847760 15.862037
556 1 12.297253 36.007514 13.499870
557 1 26.713912 28.013621 16.217271
558 1 31.538121 23.321468 23.102520
559 1 9.669900 25.958413 13.366332
560 1 1.891615 31.297718 25.312996
561 1 12.123661 25.382899 16.611651
562 1 29.681683 18.022573 23.620320
563 1 4.196891 7.086748 14.393602
564 1 31.533607 33.786094 26.774595
565 1 35.081145 14.057794 12.886811
566 1 29.879896 5.667069 1.930160
567 1 15.670687 32.833729 6.986028
568 1 26.374914 3.862695 16.368550
569 1 30.952939 35.667935 3.250214
570 1 33.092379 19.663847 1.360379
571 1 0.454846 24.084734 3.519326
572 1 27.909154 11.590529 18.151194
573 1 24.250058 33.044242 33.262801
574 1 9.971775 24.182989 10.523001
575 1 5.350713 16.317835 23.655328
576 1 2.667280 19.657633 28.085702
577 1 8.753175 11.277735 18.463876
578 1 20.831815 33.348190 17.724849
579 1 11.762541 34.577874 16.267742
580 1 19.853789 11.582480 20.763445
581 1 24.346283 18.081521 2.078792
582 1 10.300378 27.339022 25.882545
583 1 32.265007 31.625065 5.610242
584 1 30.993057 9.564700 7.276968
585 1 27.723530 33.630946 25.452978
586 1 14.932441 25.690650 29.359272
587 1 11.279731 14.386268 4.470934
588 1 15.711460 23.136267 7.598370
589 1 15.181028 7.366911 0.500251
590 1 29.006654 21.566937 33.456893
591 1 26.028544 13.747511 15.539996
592 1 21.470866 30.307572 33.179726
593 1 17.322620 16.143930 30.470968
594 1 21.108613 12.564801 16.710698
595 1 13.586378 19.763884 19.202585
596 1 7.236522 18.108382 34.385821
597 1 2.044137 19.990063 32.569843
598 1 7.374517 20.783299 20.389134
599 1 13.302646 6.650185 25.354438
600 1 27.676053 8.456801 8.172140
601 1 9.297493 24.301022 30.089587
602 1 4.598985 32.236678 10.636539
603 1 4.114553 27.985408 35.007492
604 1 27.830750 31.924656 5.214119
605 1 4.792454 16.831266 22.176993
606 1 21.082491 2.309711 2.989258
607 1 5.819458 1.359376 35.899692
608 1 6.728857 11.608486 34.122176
609 1 5.278276 18.160860 7.207674
610 1 23.789562 18.902713 19.697005
611 1 7.528216 32.332045 23.602150
612 1 21.070553 4.167535 11.864532
613 1 12.820033 32.328194 12.276838
614 1 24.351138 24.091348 1.971011
615 1 27.107678 5.557485 24.246364
616 1 9.312282 35.464308 8.228839
617 1 30.215891 6.801549 30.691265
618 1 1.286086 2.647081 35.707974
619 1 3.412187 15.444881 2.600700
620 1 35.359971 2.709208 9.023248
621 1 11.782174 4.206418 28.426887
622 1 5.200008 28.695061 29.551341
623 1 29.969023 28.313950 35.347999
624 1 5.952515 35.264880 16.996086
625 1 29.991555 24.375519 21.784622
626 1 32.445429 0.286077 21.574689
627 1 29.700956 35.639180 11.928473
628 1 32.044530 33.092160 23.503261
629 1 2.537810 32.121150 14.691380
630 1 28.644680 20.856795 13.458227
631 1 12.082996 31.153783 15.228884
632 1 18.258394 23.755754 30.633507
633 1 0.485808 30.704553 23.251378
634 1 2.685219 32.054527 3.759184
635 1 22.344125 5.697137 33.099585
636 1 3.801695 21.737834 34.771669
637 1 21.343446 32.031642 9.309271
638 1 24.537249 0.142375 8.794339
639 1 5.869434 14.847765 8.401914
640 1 28.314917 33.751995 4.245889
641 1 18.813109 5.246723 11.564080
642 1 16.319939 29.782447 34.221725
643 1 8.417839 1.133967 27.191537
644 1 20.677658 19.888577 16.174560
645 1 30.372119 13.604035 1.921475
646 1 25.455941 10.474296 30.521829
647 1 30.576491 32.455644 25.956812
648 1 25.626968 20.413361 7.885963
649 1 33.288913 14.894936 22.095331
650 1 18.009158 8.965787 25.970090
651 1 19.543986 18.198157 0.639901
652 1 13.004728 10.011262 23.543148
653 1 21.516292 10.682866 23.901570
654 1 35.087100 25.323219 5.000163
655 1 31.750967 18.364381 31.032314
656 1 4.783584 24.142557 29.264881
657 1 28.645129 13.485484 22.516067
658 1 23.304447 1.615026 0.901354
659 1 2.602222 24.974717 32.560302
660 1 19.833014 10.828058 25.911363
661 1 16.341433 19.206824 19.192955
662 1 14.456180 33.788496 19.273181
663 1 12.643121 10.290871 9.682426
664 1 0.699597 27.696822 16.283925
665 1 4.183946 9.412157 5.742796
666 1 6.763462 8.538936 29.835516
667 1 23.246444 8.095720 28.790630
668 1 32.332012 22.161490 23.337176
669 1 7.881746 10.537573 28.338877
670 1 3.929185 21.385120 24.534068
671 1 5.554678 13.856398 24.950553
672 1 33.378370 13.305244 17.466572
673 1 17.129714 20.900432 24.355502
674 1 31.870725 15.525900 14.151148
675 1 12.742280 16.453141 31.661452
676 1 6.069730 8.775532 28.097121
677 1 12.759351 30.507959 13.413005
678 1 21.743146 29.085943 26.823492
679 1 7.373940 25.094374 16.073423
680 1 27.976173 27.138231 14.397214
681 1 22.726277 4.872272 3.207779
682 1 35.063331 33.753028 33.745752
683 1 5.529186 30.213557 35.797510
684 1 15.956859 16.812343 19.320703
685 1 34.319562 28.279368 28.989869
686 1 11.439672 6.750612 13.157069
687 1 17.584380 31.256254 20.960418
688 1 20.449212 7.595381 29.548827
689 1 26.690358 12.422994 2.229143
690 1 25.078060 25.639398 2.528283
691 1 30.382223 6.819983 9.777731
692 1 5.314889 24.414784 0.685182
693 1 7.770879 3.856068 16.262425
694 1 8.635129 3.960807 25.320881
695 1 22.947653 2.671605 34.614223
696 1 1.130058 9.828918 24.357020
697 1 2.635975 4.295108 26.029176
698 1 6.498621 17.217997 10.577742
699 1 7.330688 24.367668 32.322645
700 1 4.294244 6.479551 8.070121
701 1 17.491434 6.654074 32.591427
702 1 17.212437 32.242742 14.209585
703 1 20.514314 35.072637 7.299083
704 1 8.363038 14.281815 34.737834
705 1 14.631402 10.478006 32.989584
706 1 31.257744 30.657167 15.615507
707 1 2.222405 19.914939 1.089601
708 1 0.093095 1.708500 2.662494
709 1 19.468839 4.109000 1.534924
710 1 8.548881 31.045838 30.333709
711 1 15.200031 4.561297 9.014807
712 1 7.357801 12.826907 28.016300
713 1 8.036181 31.509762 30.729866
714 1 28.533929 28.622800 22.833315
715 1 19.981806 4.446291 11.636120
716 1 23.654279 13.505681 23.230775
717 1 3.140153 27.736057 23.627337
718 1 2.986769 34.312822 26.683380
719 1 10.834185 6.333207 15.157717
720 1 11.494914 9.185793 35.805669
721 1 14.387330 27.096403 2.786239
722 1 23.816824 34.901361 0.971955
723 1 31.649947 1.985192 1.806240
724 1 27.581998 25.492951 35.159049
725 1 18.863916 34.436054 32.617962
726 1 12.818062 5.550762 19.507575
727 1 17.826719 10.399713 34.357285
728 1 29.604421 29.213212 9.319134
729 1 29.089245 9.994977 19.770719
730 1 0.398776 11.190237 27.804329
731 1 20.043409 35.446300 36.117631
732 1 27.909156 3.212849 4.003479
733 1 24.617889 35.498335 7.811434
734 1 24.012229 8.581439 23.015674
735 1 19.755076 25.025022 4.975728
736 1 28.478589 29.440383 4.543052
737 1 30.750826 22.763769 1.290386
738 1 20.950556 13.854710 34.442557
739 1 36.161151 34.998927 9.582202
740 1 35.808473 8.455486 5.906246
741 1 1.662171 14.947823 3.146318
742 1 3.127980 20.893597 10.449831
743 1 25.534866 6.963272 8.988528
744 1 26.779723 25.124738 14.848438
745 1 23.267660 12.893778 1.882874
746 1 3.328221 18.066160 11.674596
747 1 8.860771 3.369535 21.942025
748 1 0.643496 1.143271 25.200151
749 1 32.245196 16.628345 12.816764
750 1 0.368235 3.986714 3.072081
751 1 20.781586 15.036565 20.022073
752 1 1.759687 19.676281 16.540680
753 1 11.276900 6.173032 15.999918
754 1 2.851007 7.309110 19.326337
755 1 0.405320 32.185660 27.129959
756 1 7.576684 18.124179 3.551068
757 1 4.442710 6.128534 6.827752
758 1 36.135953 11.893447 20.339338
759 1 28.354584 4.885569 34.879960
760 1 31.374928 32.503232 31.968247
761 1 7.511073 11.788964 4.926867
762 1 10.263975 22.042250 17.033332
763 1 31.672219 11.725263 4.232585
764 1 6.693085 18.009158 5.768812
765 1 23.611480 0.572360 32.376803
766 1 30.088817 25.138813 17.080561
767 1 25.658465 11.550927 0.769843
768 1 2.995727 17.869658 4.772980
769 1 16.798504 29.899433 5.876140
770 1 34.941490 0.210252 15.157179
771 1 27.106703 17.908172 19.000012
772 1 11.307958 35.314490 6.670597
773 1 6.193631 27.218239 10.865143
774 1 3.609289 12.229060 26.408496
775 1 16.747699 31.123054 33.280818
776 1 18.865047 29.613929 15.548234
777 1 4.042980 35.089678 14.820285
778 1 35.593743 3.908286 29.396688
779 1 14.285830 14.689628 3.251869
780 1 21.442436 19.145120 28.028108
781 1 35.452766 5.442364 34.681642
782 1 21.097799 17.191356 29.245079
783 1 27.353013 9.742799 17.889454
784 1 31.682679 31.960014 30.847507
785 1 29.446034 26.299722 10.924577
786 1 8.871280 2.372721 19.427117
787 1 4.106699 9.021788 30.775768
788 1 10.300675 1.334009 11.682283
789 1 27.245921 18.651348 15.840706
790 1 0.959852 32.636509 18.606579
791 1 1.578388 2.717056 2.397752
792 1 12.632262 16.470253 15.490605
793 1 25.920690 26.468165 20.171111
794 1 5.185543 11.075502 20.797535
795 1 32.622502 29.605835 6.962146
796 1 27.405993 20.780953 24.530226
797 1 1.263554 16.047340 17.716446
798 1 10.409329 0.870780 2.375577
799 1 24.499651 12.633539 15.660271
800 1 2.092124 25.120770 29.095400
801 1 7.797909 15.773386 20.949614
802 1 8.631105 24.114523 21.398783
803 1 3.560258 27.371476 14.180814
804 1 8.433095 25.278693 24.610810
805 1 34.479460 30.166564 0.920134
806 1 31.285305 25.968814 10.463319
807 1 12.423028 9.740486 18.751368
808 1 33.299427 6.376135 6.893313
809 1 11.468647 25.581018 27.721478
810 1 30.216455 7.508553 4.786691
811 1 13.861104 4.543292 30.113338
812 1 19.070461 29.185470 23.146023
813 1 12.971744 20.427737 3.584366
814 1 19.560252 22.811491 24.233803
815 1 22.976697 18.710942 25.303766
816 1 11.984664 20.409159 34.885494
817 1 6.833686 34.209835 1.781297
818 1 15.222031 31.151253 8.825721
819 1 34.441539 34.335483 22.932649
820 1 33.414020 7.503122 2.600797
821 1 24.887600 2.219339 20.559327
822 1 16.914882 19.552548 0.958357
823 1 26.337626 10.300469 25.216806
824 1 21.367539 3.786996 17.343609
825 1 6.098141 18.987733 5.905583
826 1 2.959787 3.277519 13.762016
827 1 27.554375 23.004527 33.227964
828 1 29.932245 18.989517 4.845934
829 1 30.192432 15.934723 31.593721
830 1 10.866292 21.751183 29.245246
831 1 26.349755 14.530861 33.480823
832 1 19.430405 35.020155 8.099786
833 1 26.257558 8.388960 18.644608
834 1 20.214936 34.132699 16.429674
835 1 27.489734 26.114218 11.731562
836 1 16.615659 22.388491 28.751145
837 1 5.828289 0.781506 4.756524
838 1 21.290557 14.651058 30.816961
839 1 18.193480 30.633317 18.902495
840 1 0.264645 32.611099 31.994304
841 1 15.679603 35.473314 28.286456
842 1 5.626201 16.421328 7.554353
843 1 33.133284 33.059458 7.797187
844 1 34.268480 32.708057 17.920557
845 1 11.770880 6.261272 25.523686
846 1 22.350101 24.947379 14.358768
847 1 7.522987 8.285998 19.119263
848 1 10.956694 32.208583 22.699069
849 1 14.361046 4.505539 5.882324
850 1 27.219407 0.153619 6.263523
851 1 32.139579 11.996649 9.484744
852 1 4.973928 10.494015 14.722670