ITEM: TIMESTEP
0
ITEM: NUMBER OF ATOMS
3753
ITEM: BOX BOUNDS pp pp pp
0.0 39.308148
0.0 39.308148
0.0 39.308148
ITEM: ATOMS id type x y z vx vy vz fx fy fz
1 1 13.169882 27.110423 10.759704 0.00216498 -0.01009057 -0.00398328 -0.00006700 0.00015092 -0.00003104
2 1 31.783857 1.939810 23.061217 -0.00114285 0.02379271 -0.00174259 -0.00016317 -0.00006540 -0.00007965
3 1 35.607238 7.761209 34.265870 -0.06033805 0.06298889 0.00347716 0.00005738 0.00004151 -0.00010345
4 1 3.568222 3.584737 20.651119 -0.01719130 -0.00183895 -0.00769168 -0.00003567 0.00000280 0.00014887
5 1 29.776639 9.788670 19.871529 0.02852779 0.02091210 -0.04455881 0.00004636 -0.00000778 0.00010345
6 1 32.877480 3.350773 4.546771 0.00800793 0.00322807 0.02610343 -0.00013293 0.00001399 0.00006098
7 1 8.719997 33.642540 0.940924 0.01756459 -0.01955531 -0.02824968 0.00000622 0.00000458 0.00010401
8 1 9.092374 23.079942 10.733289 -0.03463645 -0.04848074 0.01450155 0.00019820 0.00003116 -0.00009481
9 1 39.004921 26.620098 8.504184 0.02630878 0.04671512 -0.02687255 0.00005710 -0.00016748 0.00008702
10 1 18.321893 33.332563 9.354038 -0.01211715 0.01102844 0.01734932 306.60587951 -64.13696043 61.64518331
11 1 17.678142 15.437148 34.858273 -0.01762578 0.01521824 0.04902865 -0.00021274 -0.00001911 -0.00005181
12 1 37.632213 9.085614 35.618008 0.01422691 -0.02324502 -0.02294971 0.00012689 0.00000157 0.00000740
13 1 23.500638 17.985512 35.284824 -0.02210433 -0.00972085 -0.02270696 -0.00003196 -0.00015752 -0.00005036
14 1 36.497519 20.493583 3.910045 -0.01058928 -0.02100121 0.03943044 0.00002778 -0.00009281 0.00009460
15 1 13.304198 0.453497 22.189579 0.00387815 -0.05873774 -0.07774258 0.00001069 0.00021524 -0.00015654
16 1 22.219540 32.074154 2.653207 -0.00925978 0.00542527 0.04485541 0.00002253 0.00002469 0.00003653
17 1 8.074837 2.581623 32.578045 -0.01207187 -0.04531086 0.05899241 -0.00009735 0.00000838 -0.00002413
18 1 28.747690 29.867864 9.763863 0.01256797 -0.00323129 -0.03580876 -0.00017820 -0.00001061 -0.00018980
19 1 24.485087 23.862811 38.023868 -0.02443127 0.02041120 0.03195877 0.00005750 -0.00009509 0.00003908
20 1 38.998778 20.507922 32.739740 0.03030087 0.00960618 0.03206318 -2.23377969 -1.88017244 14.31563028
21 1 3.823034 11.808600 28.562291 0.02804916 -0.00656718 -0.03835572 -0.00016442 -0.00018136 -0.00026104
22 1 6.244879 36.215796 34.989320 0.01802461 -0.04314524 0.01351258 -0.00005694 0.00001023 -0.00005825
23 1 16.453730 26.489102 8.859395 -0.08917024 -0.01734556 -0.01764115 -0.00012848 -0.00008429 -0.00013702
24 1 6.165476 31.343255 20.449068 -0.03288826 -0.00441522 0.00436961 0.00011281 -0.00006029 -0.00015883
25 1 2.373113 26.253938 32.076923 0.04988990 -0.00177505 -0.01269364 0.00004079 0.00010292 -0.00004940
26 1 23.108844 36.536339 7.125901 0.05162320 -0.02734516 0.00167987 0.00035167 -0.00014750 0.00008546
27 1 0.939674 10.487225 22.734452 0.04307240 -0.02292035 0.00747216 0.00007203 0.00002629 -0.00000114
28 1 1.151370 7.617099 29.151618 -0.00109168 -0.03846899 0.02300147 -0.00007176 -0.00018300 0.00014181
29 1 15.538726 27.474590 35.065800 -0.02581186 -0.00080927 0.03834706 -0.00008012 -0.00001260 0.00009090
30 1 32.834879 4.307608 13.780011 0.02210997 0.01715723 0.02866189 -0.00002627 0.00015621 0.00005049
31 1 13.660192 19.405640 14.020822 -0.01059145 -0.00492407 -0.00466788 -0.00030301 0.00001442 0.00008788
32 1 31.767235 18.888204 18.604670 0.01601944 -0.00617790 0.01213638 0.00008111 0.00003478 -0.00008673
33 1 21.309477 11.405104 19.612617 -0.00044661 0.00568140 -0.03798333 -0.00023544 0.00011104 -0.00013946
34 1 22.697777 15.616053 8.914850 0.01342743 0.01532551 -0.00665562 -0.00012006 -0.00009000 0.00001565
35 1 15.678359 33.666193 5.081800 -0.03908190 -0.00654189 0.04222575 -0.00021954 -0.00002973 -0.00043656
36 1 0.418999 3.102749 18.787636 -0.01512892 0.01766667 -0.04258883 0.00003984 0.00014872 -0.00013468
37 1 27.013624 33.460477 8.154834 -0.01623534 -0.04509646 -0.02972809 -0.00003978 -0.00018128 -0.00012549
38 1 38.716678 34.187569 16.021652 -0.02972666 0.03236099 0.01164266 0.00000481 0.00005648 -0.00013133
39 1 13.554815 28.954484 4.433178 0.01301912 -0.02932909 0.00690659 -92.58769177 53.32848705 33.61681550
40 1 14.802738 25.945719 10.713241 -0.00385160 0.01511611 -0.01623619 -0.00003765 -0.00015324 0.00017994
41 1 33.115553 13.358391 37.506123 0.00242231 0.00311810 -0.02979742 0.00017634 -0.00008757 0.00004360
42 1 24.272415 29.015741 2.626302 0.01710689 0.02429781 -0.01970134 -0.00020332 0.00002706 -0.00002963
43 1 0.514897 21.332920 38.935883 0.02338494 0.01035031 0.00500310 0.00002538 -0.00011165 0.00017794
44 1 19.458625 35.919037 10.672489 -0.00803553 0.03829102 -0.00678831 -0.00023915 -0.00042054 -0.00005205
45 1 2.418738 8.701805 29.019363 -0.04486048 0.00304242 0.02498414 0.00008694 -0.00008632 0.00007692
46 1 16.610943 8.119629 15.149841 0.03258039 0.03392463 -0.03736611 -0.00005971 0.00002579 -0.00006384
47 1 15.721104 8.947502 8.808986 -0.00037849 0.01433912 0.01296395 0.00011730 -0.00010709 -0.00003937
48 1 18.181156 14.655207 34.900567 -0.01668445 0.01554175 -0.02900193 -0.00019405 -0.00007260 -0.00004090
49 1 9.334132 36.059649 16.831669 0.02415610 -0.03302097 -0.02540825 0.00009174 -0.00005578 0.00010669
50 1 15.340354 38.479556 30.255745 0.01762921 -0.00308773 0.02550918 0.00009433 0.00001671 0.00016900
51 1 38.941426 21.807320 35.904166 0.00061563 0.02022533 -0.03537463 0.00012897 0.00091837 0.00242778
52 1 27.379336 39.307609 37.590042 -0.02712668 0.02132670 -0.01828278 -0.00010680 0.00011522 0.00032335
53 1 12.087932 36.723640 34.301303 0.01470369 0.06902789 0.04041698 0.00000145 0.00004579 0.00002741
54 1 18.044197 10.615081 4.140855 -0.00833122 0.01017608 -0.02123464 0.00032002 0.00009461 -0.00001574
55 1 8.673268 21.208372 38.191504 0.00723056 0.01795179 0.01393328 418.59765495 151.37145991 247.52444488
56 1 12.530364 38.073727 22.300473 -0.04907060 0.01910357 0.00612759 0.00011381 0.00001184 0.00008837
57 1 22.126967 2.276472 2.544755 -0.07486569 -0.02125907 -0.05143579 -0.00037116 0.00017622 0.00002620
58 1 35.729247 33.214796 7.875865 0.01295611 0.00409211 -0.04175101 -0.00004941 -0.00001786 -0.00011043
59 1 1.271996 11.237344 18.636501 0.01422354 0.05695111 -0.00476600 -0.00012572 0.00010350 -0.00000982
60 1 37.445075 21.111369 21.920625 -0.00083579 0.03250937 0.00833765 -75.49381263 839.74693294 876.61467663
61 1 32.235393 19.808411 14.273802 -0.00656593 -0.01566370 -0.06196261 0.00009536 -0.00003367 -0.00004088
62 1 7.018780 6.063929 24.858626 0.03042848 0.02499912 0.02745074 0.00004160 0.00008830 -0.00001118
63 1 1.905727 11.170170 1.233607 -0.05402767 -0.01965268 -0.04933789 -0.00007037 -0.00011657 -0.00012111
64 1 24.314251 24.653342 20.543935 -0.00760037 0.03325784 0.03784380 -0.00011608 -0.00005354 -0.00008472
65 1 0.561330 28.091970 35.510116 -0.06217953 -0.02554675 0.03094737 -23221.70786787 5809.16462583 21720.63179827
66 1 27.931943 3.400509 17.263244 -0.03413380 -0.00017885 0.02943827 -0.00008005 0.00018286 -0.00013068
67 1 5.147725 31.277083 7.487939 0.02052806 0.00772800 -0.05472183 -0.00012018 0.00016858 0.00001745
68 1 25.516897 34.773012 18.525282 0.02859173 -0.04824877 0.02123725 0.00004612 0.00001052 -0.00013626
69 1 4.270419 21.206829 10.444668 0.02794025 0.01757872 0.06405205 -0.00013790 -0.00005361 -0.00015165
70 1 33.819305 16.830503 19.256189 0.01494236 -0.00093261 -0.03545638 0.00001940 -0.00002431 0.00016481
71 1 16.358478 13.270003 17.521930 0.00222695 -0.04748371 -0.00841770 -0.00007623 -0.00007835 -0.00010488
72 1 1.854813 11.295929 19.001805 -0.01205350 -0.09839671 -0.00256402 0.00008583 0.00005249 0.00014183
73 1 15.277553 1.137082 3.395560 -0.01661626 -0.02153592 0.00729878 0.00018433 0.00004083 -0.00010011
74 1 20.821797 15.917633 38.240404 -0.00484371 0.00709351 0.00542399 0.00004697 -0.00002697 -0.00010744
75 1 20.322187 17.348272 13.899403 0.01422122 0.04214121 -0.00564828 -0.00001041 -0.00002732 0.00014145
76 1 20.840878 16.319547 13.484121 0.04416525 -0.04211979 -0.03250344 -0.00005766 0.00009257 -0.00010640
77 1 5.840652 11.380532 6.960305 -0.01144402 -0.03324934 0.01097887 -0.00000843 0.00000114 -0.00003202
78 1 13.168401 4.315606 15.801849 -0.03800598 -0.00309056 0.04263096 -0.00000984 -0.00009243 -0.00013141
79 1 33.644719 30.237030 8.734566 0.02872996 -0.00266412 -0.00749924 -0.00000897 0.00007258 -0.00009466
80 1 23.414812 37.857715 21.760021 -0.01548321 0.03366304 0.00554260 0.00005456 0.00002370 -0.00004874
81 1 19.163074 2.160300 8.644010 -0.05012350 0.01029977 -0.02898987 0.00003039 0.00012644 0.00004071
82 1 34.106548 17.593051 9.194530 -0.00731645 0.01921649 0.02384576 -0.00002112 -0.00002250 -0.00008380
83 1 5.952155 23.992884 32.954340 -0.04227409 0.05774198 -0.04223279 0.00001168 0.00009910 -0.00003621
84 1 0.457285 34.973609 3.393753 0.01853428 0.01706288 -0.00695532 0.00006422 -0.00002830 0.00000727
85 1 36.242141 26.716590 34.652847 -0.01003999 -0.00341122 0.02540930 -0.00148827 -0.00058779 -0.00019215
86 1 21.611370 38.699721 10.742958 -0.01313388 -0.00232731 0.00862601 0.00009796 0.00006662 -0.00003903
87 1 23.080920 0.955876 32.974835 0.00315103 -0.02483959 -0.04799770 -0.00001116 -0.00007133 -0.00010674
88 1 5.315872 10.970045 9.919593 0.03677439 0.02839621 0.01046389 -0.00001424 -0.00017959 -0.00002385
89 1 23.815138 4.508536 1.127167 -0.00495660 0.00874894 0.01442674 -0.00000477 -0.00017789 0.00000002
90 1 33.783911 12.006837 21.050520 -0.00128976 0.00915831 0.01772141 -0.00014418 -0.00008430 -0.00020997
91 1 2.996032 38.357101 37.909299 0.02148767 -0.01443229 0.00634352 -0.00001240 -0.00013298 0.00001634
92 1 3.627206 3.857095 3.223747 -0.03605377 -0.05881472 -0.01633942 0.00006553 -0.00000508 0.00003099
93 1 8.919064 1.416424 22.481905 0.02088487 -0.00293168 0.00737072 0.00000747 -0.00002327 -0.00015788
94 1 3.258433 30.208090 31.648449 -0.02635575 0.07344486 -0.07931454 0.00022344 0.00032375 -0.00011057
95 1 27.718795 23.872061 8.019450 -0.06969289 0.04687809 0.01566928 -0.00008236 0.00001051 0.00011738
96 1 7.678372 16.117684 12.742114 0.02481842 -0.02464546 -0.00186483 -0.76647245 -4.96636985 -3.09349540
97 1 24.988854 24.977984 36.647195 0.00796380 0.01129818 0.00455839 0.00004116 0.00008252 -0.00005404
98 1 38.839577 12.279758 9.418903 0.04792338 0.02139387 0.02490631 -95.79943406 642.03159072 -463.72218208
99 1 28.863994 0.184547 13.416624 0.02428939 -0.00258452 -0.00377588 -0.00007233 0.00019388 0.00003873
100 1 29.798146 24.326957 8.632926 -0.01411332 -0.08256902 0.01450778 2.66225769 0.14478295 1.35393711
101 1 11.526044 34.738522 16.864261 -0.01830606 -0.01352877 0.03672226 -0.00001552 -0.00000552 -0.00006805
102 1 15.754592 32.381958 25.918359 -0.01541650 0.03503524 -0.01409758 403146.85088141 230513.13293988 -712342.54680198
103 1 7.885700 24.808500 3.590728 0.04099909 0.00355996 -0.07820822 -0.00009416 0.00007175 0.00021599
104 1 8.682611 37.759597 9.309012 0.01075737 -0.02945449 0.04707305 -21570.45820768 -36584.98450471 27867.84207376
105 1 13.012541 25.869222 34.710203 0.03182989 0.04311821 -0.01449583 -1825492.68497064 1277217.33252896 -2055444.30042419
106 1 6.200238 36.338220 22.835716 0.02819612 -0.04081350 -0.02242356 0.00015119 0.00008236 0.00000654
107 1 13.179948 36.472603 12.938558 0.03899219 0.02663078 -0.02608381 -8190.19369787 -4891.55737932 -45506.78108841
108 1 5.283960 9.847172 19.226165 0.01084906 0.02641091 -0.03582910 -0.00000912 -0.00008952 0.00013912
109 1 5.612299 29.968777 11.540882 0.01305913 0.03443244 -0.04537833 -0.00016690 -0.00002746 -0.00009886
110 1 28.701445 35.553387 31.773075 -0.01630013 -0.04320360 -0.05540854 -0.00003351 0.00012884 -0.00005662
111 1 9.045798 27.491605 2.240158 0.01198710 -0.04280668 0.02621343 -0.00023426 -0.00009155 -0.00005225
112 1 32.238543 22.430485 17.925349 -0.02793914 -0.00747163 0.01801284 0.00007335 0.00000645 0.00012096
113 1 18.536777 24.950530 5.105350 -0.01151572 0.01244743 -0.01854625 0.00009356 -0.00008216 0.00008480
114 1 24.507058 25.250098 23.900537 0.00276164 0.00884815 0.00561231 0.00007215 -0.00008332 -0.00005959
115 1 26.828797 32.255698 7.993424 -0.03524443 -0.02110505 -0.04281707 -0.00014859 0.00002507 -0.00013963
116 1 15.026263 20.888637 17.632854 0.00668559 0.05408376 -0.01527117 0.00000507 -0.00011712 0.00000862
117 1 20.193513 38.809560 26.389193 0.01981055 0.03460479 0.03100760 0.00015162 0.00006216 0.00005928
118 1 22.957820 8.584299 32.086454 0.04339610 -0.02004764 0.01373202 -0.00010056 0.00001851 0.00006996
119 1 33.411994 23.923637 26.141977 -0.01230908 0.01510676 -0.00017375 0.00003239 0.00001125 -0.00002420
120 1 30.152011 24.577407 29.942814 -0.03545632 -0.00901687 -0.02024606 -0.00008171 -0.00005751 0.00004221
121 1 12.552532 12.195443 32.650830 0.01014223 0.01495975 0.02545344 590.50558678 -396.50027681 -15.16823790
122 1 39.155383 28.706436 20.991575 0.03333684 0.01507301 0.04313701 0.00005868 -0.00004773 -0.00010705
123 1 31.337560 19.370751 26.418704 -0.03592483 0.04485707 0.00536293 -0.00030349 -0.00003236 -0.00002998
124 1 1.628198 35.654613 7.994763 0.00397408 -0.01382488 0.00438069 -0.00006817 0.00010446 -0.00006616
125 1 15.203371 33.536535 10.136422 -0.02905170 0.00344021 -0.00710954 -0.00092086 -0.00043653 -0.00022372
126 1 30.187755 32.581434 0.185531 0.05383992 -0.04417501 0.01014865 -0.00001597 -0.00023198 0.00003289
127 1 13.905825 19.865543 15.043140 0.03240471 0.03342011 0.02863082 0.00005431 -0.00003680 0.00005138
128 1 10.133936 23.600745 11.010604 0.05357870 -0.03153696 0.01393748 -0.00017611 0.00004467 -0.00005503
129 1 19.828086 18.309762 36.109376 0.00329669 0.01420260 -0.01818388 -102.19225641 1059.32637481 -49.89502396
130 1 32.729186 36.321649 34.174376 -0.03588592 0.02470584 -0.03798322 -0.00021515 -0.00003720 -0.00004211
131 1 0.303711 38.775127 18.557075 0.02559281 -0.01530857 0.00078857 0.00007600 0.00004448 -0.00004333
132 1 28.807035 10.015482 15.409516 0.00184886 -0.00126284 -0.01110693 -0.00005356 -0.00008103 -0.00006656
133 1 6.170665 34.751278 27.593805 0.00738422 -0.01374423 -0.03891838 0.00002101 -0.00010003 0.00010654
134 1 3.056025 3.365729 16.659794 0.01682431 -0.04055763 -0.01056493 -0.00023716 0.00000198 -0.00005803
135 1 37.819416 27.766780 8.468376 -0.05670825 -0.02528172 -0.00830624 0.00010297 -0.00012710 0.00007286
136 1 12.335203 16.543951 33.433344 0.00856999 -0.04872095 0.03184557 -0.00006608 0.00065844 0.00019774
137 1 2.426687 30.118818 17.348781 -0.05049607 0.03296329 0.01381184 -0.00006173 -0.00001891 -0.00000196
138 1 25.246909 1.323643 22.860888 0.00007118 0.05106354 -0.00964281 0.00011446 0.00005835 -0.00018182
139 1 6.560998 1.483810 11.314239 -0.00397958 0.02816818 -0.01614697 -0.00047453 0.00078924 0.00060982
140 1 24.863208 28.758031 13.573638 -0.00774025 0.02218776 0.03398979 -0.00004702 -0.00021308 -0.00001682
141 1 30.445789 3.506581 9.344428 0.01779978 -0.02433410 -0.01564382 -0.00003464 -0.00008215 0.00000479
142 1 3.747641 33.018133 12.681189 0.01643491 -0.05726037 0.01545584 0.00002227 -0.00004253 0.00003018
143 1 36.230578 30.214132 3.083907 0.02385860 -0.02306744 -0.03130340 -0.00004290 -0.00002572 0.00008720
144 1 15.512189 38.307635 12.896855 0.00042417 -0.05164999 -0.04107708 -4939.52619876 -2929.27968296 7108.57484636
145 1 20.242868 4.358957 28.466467 0.00720419 0.04171404 0.04401115 -0.00010387 0.00002265 0.00005105
146 1 23.514111 31.098982 32.937826 -0.04959722 -0.01486428 0.03354332 -0.00015490 -0.00003993 0.00002241
147 1 11.552832 34.800682 27.140738 -0.02551867 -0.03793845 -0.01205487 -0.00035922 0.00012691 0.00006424
148 1 37.670118 23.598395 5.334807 0.00037827 0.01897370 -0.00711790 0.00027053 0.00005093 -0.00003332
149 1 14.734793 7.495399 2.829671 -0.04097428 -0.04778000 -0.02397719 0.00005769 -0.00001121 -0.00007316
150 1 34.710811 5.959757 28.589392 -0.04183511 0.01607620 -0.01893072 0.00814922 0.00826980 -0.00759233
151 1 31.738841 18.114409 35.880467 0.04138699 -0.02711085 -0.02511554 -0.00003826 0.00000355 0.00000051
152 1 14.611151 38.500606 13.611368 0.02045296 0.01985475 0.01249337 3498.67294793 -749.39113214 -2774.48514586
153 1 14.835173 13.860847 2.907446 -0.01288146 0.05593913 0.01825097 -0.00002531 0.00004612 0.00017571
154 1 31.717423 10.463496 30.818463 -0.00586925 0.04933380 -0.03956373 -0.00004086 -0.00013829 0.00010175
155 1 28.563663 1.492257 16.113848 0.00798785 0.02108037 0.04341702 -0.00000430 0.00002459 0.00003636
156 1 2.073627 15.518833 13.656408 0.03666376 -0.03886431 0.00707613 -0.00011332 0.00011966 0.00003409
157 1 3.887056 0.712795 3.611567 0.03550238 -0.00672654 0.01467655 -0.00006361 0.00012796 -0.00028086
158 1 32.585041 33.083172 5.455886 0.09123844 -0.01796226 -0.01651858 -0.00008318 -0.00010467 0.00006025
159 1 3.143034 21.633533 25.166281 0.07178336 0.00665785 -0.00009660 -0.00005346 0.00015293 0.00011843
160 1 7.494159 12.699776 13.691975 -0.02590469 0.02328758 -0.06851786 -0.00010473 -0.00241699 0.00065937
161 1 3.926054 36.583314 32.003244 0.03430196 -0.07486650 0.03608133 -0.00007322 0.00007526 0.00019482
162 1 7.079828 23.168417 11.206998 -0.00291159 -0.00980215 -0.01455439 0.00004326 -0.00007851 -0.00008728
163 1 10.975132 5.775670 16.743031 -0.02028333 -0.02958325 -0.09250476 -0.00001510 -0.00010462 0.00002133
164 1 18.843696 4.111521 11.915578 -0.00310010 0.06540865 -0.02056191 0.00005456 0.00016475 0.00016503
165 1 11.359520 9.404444 24.570328 0.06351083 0.04673885 -0.02759693 0.00012042 -0.00007585 -0.00005259
166 1 13.727943 14.895965 7.923584 0.00245666 -0.00611319 0.03331798 0.00007657 -0.00006687 -0.00006353
167 1 35.227890 13.803095 5.587181 0.03356420 0.07450629 0.05912525 -0.00019929 0.00007456 -0.00034798
168 1 10.441287 17.226723 19.145617 -0.03544412 0.00836228 -0.01840223 0.00004230 -0.00008749 -0.00000790
169 1 6.141136 19.298522 36.589466 -0.03473704 -0.02942078 -0.01450751 -0.00187358 -0.00122616 -0.00120158
170 1 35.599206 14.353384 2.662606 0.00005917 0.00769196 0.03367714 -0.00008262 -0.00008158 0.00000386
171 1 24.874186 9.334544 20.639374 -0.02928897 -0.02139377 0.01622853 0.00023717 -0.00000828 -0.00004201
172 1 31.239317 27.247308 33.068016 0.02711473 0.00557300 -0.02331659 0.00001412 0.00006154 -0.00005366
173 1 18.946721 31.752989 9.128586 0.03055131 0.03192769 0.00149801 4686.87710847 -1022.34774235 -2307.88674746
174 1 27.710277 12.835802 6.843916 -0.00358201 -0.03019183 0.00707983 0.00002246 -0.00006589 0.00014921
175 1 37.779564 38.821553 16.997738 0.05736858 -0.05103656 0.02358334 -0.00004356 -0.00001350 -0.00001183
176 1 9.831806 21.583306 38.833308 -0.03809508 0.01278733 -0.05605981 -438.84540520 -142.02192293 -243.11055823
177 1 5.741710 23.118717 32.936666 0.00950566 0.04389240 0.01014021 -1.85283466 1.49231562 -1.80974471
178 1 20.956450 3.024405 18.807066 0.05323047 -0.01846027 -0.01591453 0.31541912 0.62350727 0.31583483
179 1 15.246536 32.184732 23.215151 -0.05336864 0.00584298 -0.04607811 0.00628709 0.00266749 0.03350509
180 1 19.891523 14.640338 29.890504 -0.00143565 0.01831783 -0.00503802 -0.00019214 -0.00003665 0.00010601
181 1 21.983596 30.489468 10.973538 -0.00565381 0.05531171 0.01675586 0.00201428 -0.00101893 0.00128844
182 1 27.697228 37.153858 6.664974 -0.00227276 -0.04587488 0.08059515 0.00007640 0.00010366 0.00015199
183 1 10.918089 25.908058 15.199499 -0.01182744 0.03403048 -0.00866643 -12960231.51770117 -4490335.52119525 5351630.80385172
184 1 22.040122 3.668823 26.812462 -0.00205861 -0.01165902 0.00182753 0.00016350 0.00000295 -0.00013322
185 1 8.034878 26.197201 37.160792 -0.00188489 0.04285686 -0.02886849 -0.00011712 0.00036940 0.00015087
186 1 6.461849 29.221777 10.203538 0.04006288 -0.02364685 -0.05149102 -0.00004387 0.00001222 0.00002751
187 1 32.711390 22.205889 6.112067 0.01950354 -0.01593751 -0.03862952 0.00074380 -0.00061939 -0.00040400
188 1 8.949998 3.298184 11.255746 0.05935590 -0.01436296 -0.00444199 -0.00000993 0.00034612 0.00014898
189 1 18.452391 6.176401 32.781313 -0.01849872 -0.02934680 0.01533286 -0.00018850 0.00014826 0.00002061
190 1 7.507614 19.874339 34.216249 -0.03910893 0.04567233 -0.00493644 0.00064994 -0.00177125 -0.00018413
191 1 35.496175 29.953199 37.551035 0.02499896 -0.00069891 -0.03494432 -0.00036555 0.00014156 0.00008362
192 1 11.806872 8.042989 18.539040 -0.07681929 -0.00110916 0.02201896 -0.00008310 -0.00001305 0.00003802
193 1 30.807913 30.491218 28.584636 -0.02513442 0.00888349 -0.03827090 -0.00007347 0.00001609 0.00015523
194 1 24.565928 6.672729 32.098061 0.02713274 -0.01325341 -0.01615858 3.41060804 -5.66775317 -0.05118090
195 1 5.386469 20.155328 25.265798 0.03897801 0.01493294 -0.03978439 0.00001308 -0.00018046 0.00001125
196 1 12.856289 32.095811 6.499333 -0.02993607 -0.00403775 0.02442613 -0.00031488 0.00162620 0.00088810
197 1 10.005810 31.229136 23.587698 0.00998794 0.02240030 0.02539684 -0.00004595 -0.00015047 0.00001514
198 1 19.678508 4.714822 32.972372 0.00934785 -0.04935104 0.02182259 -0.00037808 -0.00004331 0.00026501
199 1 7.162348 8.221070 9.672915 -0.07751225 0.03376418 -0.04000796 -0.00003272 -0.00004920 0.00009896
200 1 1.517971 17.054297 18.350519 -0.05009757 -0.02344953 -0.00989236 0.00025678 -0.00011150 0.00007182
201 1 4.634003 4.666054 14.927487 -0.02827362 -0.04466691 0.00330106 0.00008122 -0.00005322 -0.00006607
202 1 8.700193 15.315049 16.881793 -0.01766020 0.00696242 -0.00723369 -6.84226829 -9.07285854 42.57556645
203 1 15.531659 0.811226 12.141762 -0.01705448 0.02538226 0.01392427 -0.04804475 -4.52019301 1.88424732
204 1 10.598433 9.308311 27.754165 0.04525622 0.01192501 0.02943273 -0.00026479 -0.00004663 -0.00017701
205 1 10.705600 26.713379 30.194872 0.03209635 0.01361457 -0.01292832 0.00005753 0.00004190 -0.00034580
206 1 30.834037 4.669192 14.732443 0.02851787 0.00469991 0.03043763 0.00000236 0.00004331 -0.00003951
207 1 16.384583 35.546466 20.446112 0.00368657 -0.06032248 -0.02285340 0.00001401 -0.00001145 -0.00034077
208 1 7.690788 17.888001 28.330256 0.06273168 -0.03250497 -0.02627333 0.00005099 -0.00006353 -0.00017968
209 1 13.074824 21.828201 32.092305 -0.00813002 -0.03931030 0.02252877 0.00004098 -0.00035902 -0.00026913
210 1 23.444998 25.363290 0.262346 0.02982835 -0.04890466 0.01426549 -0.00008059 0.00001287 0.00004221
211 1 21.986672 15.535352 36.202636 -0.03316928 -0.00020455 -0.00848014 0.00166096 -0.00204480 -0.00005258
212 1 14.257490 39.033061 18.833935 0.03726241 0.06908150 0.00529907 0.00001201 0.00005278 0.00005513
213 1 0.549330 20.547344 17.398404 -0.01964693 0.01010280 0.01469146 0.00026228 -0.00015114 -0.00031919
214 1 21.721035 22.113021 17.595706 0.02975262 0.02321705 0.00696768 -0.00006140 0.00004419 0.00007804
215 1 4.320518 25.250331 16.030263 -0.02211273 -0.02576944 0.02378871 -0.00006549 -0.00025733 -0.00015455
216 1 5.404129 32.723288 21.632261 0.00540012 -0.01832260 0.03590636 -0.00002106 0.00000871 0.00010801
217 1 22.575767 7.146516 14.393769 0.01965523 -0.01527487 -0.01229808 0.00008933 0.00002385 -0.00002669
218 1 38.918162 32.822676 29.568905 0.03609474 -0.03351187 -0.05654760 0.00006349 0.00006107 -0.00004807
219 1 18.465556 3.039371 34.056133 0.03734616 -0.01954952 0.01240147 0.00001522 -0.00001231 -0.00004563
220 1 39.252887 31.454751 30.241788 -0.02289253 -0.02075860 0.01253264 16.74671240 -9.19567418 3.38141464
221 1 27.755353 32.880644 0.564853 -0.04328258 -0.01191547 -0.01454092 -0.00013675 -0.00005993 0.00001086
222 1 12.992607 10.872597 10.676830 0.01823233 -0.00060164 -0.03244305 -0.00003700 0.00008725 -0.00006146
223 1 2.500706 20.750525 16.027539 -0.03077284 0.00113954 -0.03576493 0.00006349 0.00007029 -0.00000311
224 1 16.732456 35.039106 2.908730 -0.00421079 -0.01272972 0.01952469 0.00019087 0.00000293 -0.00013093
225 1 23.687531 6.426428 28.895343 -0.01199791 -0.00035389 0.01482426 -0.00068184 -0.00024925 -0.00197705
226 1 16.795998 30.455871 5.306159 -0.01780756 0.01652941 -0.03423123 0.00155193 0.00040839 -0.00032567
227 1 9.465324 5.651363 5.378075 -0.04631389 -0.02254962 -0.01421282 0.00007131 -0.00011981 0.00004347
228 1 8.809437 37.980446 24.797840 -0.00142251 -0.01540215 0.00125484 -0.00003967 0.00000588 0.00001718
229 1 6.667287 23.065723 36.840009 -0.00766906 0.04636098 0.05328848 0.00219994 -0.00170706 0.00282124
230 1 33.519250 2.792683 38.400189 0.06212386 0.03025271 0.00896590 0.00011496 -0.00001729 -0.00012370
231 1 14.627966 10.493555 3.034316 -0.00493676 -0.03787401 -0.02301214 0.00004855 0.00005023 -0.00011621
232 1 15.461741 13.548442 37.563191 -0.01513411 -0.01169770 -0.06484799 0.00012617 0.00006388 0.00021508
233 1 6.526854 24.505265 7.420439 -0.02120968 -0.00710853 0.01387382 0.00004400 -0.00007346 -0.00008105
234 1 34.595633 38.718723 31.367854 0.06254170 -0.00802311 -0.02907725 0.00002490 -0.00023133 0.00011850
235 1 4.308301 29.989293 23.353783 -0.00970981 0.02683336 0.01861056 -0.00000453 0.00010183 -0.00006126
236 1 3.244422 37.830917 22.659721 -0.00976580 0.00866896 -0.00959166 0.00012375 -0.00012982 0.00016553
237 1 2.052949 14.514111 34.252398 0.00117484 -0.02142304 -0.01767492 0.00004472 -0.00009440 0.00002919
238 1 7.893699 26.064019 2.723258 0.02666218 -0.04382970 -0.04897290 -0.00009729 -0.00004383 0.00013390
239 1 20.901428 1.712141 16.499484 0.03767061 -0.02317771 0.03180027 0.00130632 0.03225786 0.05678425
240 1 35.297539 10.169393 4.908407 0.03548069 0.00220357 0.00629714 338.22296921 321.32953337 -250.90700054
241 1 9.379437 30.536241 3.472513 -0.00786047 -0.00933432 0.03156584 -162.27602235 -305.96241571 -116.97711464
242 1 4.689740 30.660675 14.573493 -0.01872523 0.02408384 0.01350801 0.00020540 0.00000189 0.00016222
243 1 20.745275 7.984335 36.636846 0.00446870 -0.01622154 0.03713223 -0.00003422 0.00003025 0.00012916
244 1 13.062787 36.199095 20.141749 -0.00118843 -0.02170339 -0.05607515 0.00001044 0.00006343 0.00009957
245 1 10.724839 20.734065 1.554241 -0.05497199 -0.00007013 0.01443769 0.00142968 -0.00043355 0.00183426
246 1 35.948657 2.616202 7.025318 0.01223157 0.01267388 0.00922896 0.00000517 -0.00008147 0.00004740
247 1 27.450499 15.185347 36.027215 0.02872119 -0.00100414 0.04189249 0.00001181 -0.00010605 -0.00003357
248 1 23.271147 12.060812 34.267824 0.00730197 0.04613195 0.01388809 -0.00000769 0.00017284 -0.00000446
249 1 12.644295 0.377653 14.147581 -0.04266682 0.00119290 -0.02799361 -0.00249547 0.00340704 0.00180694
250 1 31.763108 13.455653 22.289954 -0.05086139 0.06591413 -0.00447865 0.00004015 0.00008327 -0.00005016
251 1 35.415139 16.046337 6.778665 -0.01195276 -0.01982007 -0.00759889 -0.00016985 0.00005109 -0.00013715
252 1 11.229467 13.291792 16.868592 -0.01671043 0.06369037 0.05256804 0.00118008 -0.00080978 -0.00018611
253 1 21.320340 27.826102 2.438900 -0.01237169 -0.00199154 -0.01567336 0.00002890 -0.00013831 -0.00007748
254 1 10.081744 33.728997 34.345034 0.00678081 0.05826407 0.00922242 4118.79656172 2065.97094941 9510.80379970
255 1 5.739150 2.294451 13.432904 0.01727201 0.02459918 -0.01196626 -0.00001675 0.00000421 0.00006240
256 1 22.788450 0.433389 12.437883 -0.02962914 -0.01089054 -0.01135977 0.00018378 0.00003311 -0.00005993
257 1 16.919125 25.496890 30.885685 -0.00622334 -0.00067337 0.03377555 0.00024400 -0.00002039 -0.00007313
258 1 9.824402 16.745977 12.538362 0.01707817 -0.02175126 -0.08056443 -0.75137806 -0.21983189 0.07085533
259 1 3.947288 6.052244 17.176688 -0.00326453 0.01728518 -0.00800016 -0.00013533 -0.00005185 0.00016955
260 1 12.623029 7.521961 15.576235 0.01971256 -0.05243819 -0.04854373 0.00020494 -0.00011004 0.00001436
261 1 24.582736 20.733472 10.225201 0.01509566 -0.01383317 -0.01294082 0.00001744 -0.00009093 -0.00005551
262 1 20.456770 11.234476 33.442295 -0.04605492 0.01163871 -0.01561169 -0.00001702 0.00004031 0.00003503
263 1 38.943743 12.739698 4.481570 0.01678712 0.00380973 -0.03398674 0.00073661 0.00053849 -0.00060699
264 1 36.992649 17.902760 36.141429 -0.02482575 -0.01248250 0.01489752 -0.00029550 -0.00027988 0.00047504
265 1 15.703679 27.331203 23.675004 -0.01295242 -0.00244232 0.01266779 -0.00001365 -0.00033148 0.00010131
266 1 3.668783 17.848709 14.922210 0.00905490 0.03698458 0.03594644 11.36890737 16.00943928 93.21831871
267 1 35.561231 21.330467 19.807690 -0.00417664 0.02023698 -0.01168221 167476.13134727 -136556.00200629 85978.31114453
268 1 11.531880 31.051916 15.350644 0.03874221 -0.03344699 -0.00280514 -0.00000070 0.00020864 0.00000518
269 1 3.142727 7.594068 19.061294 0.02791687 0.09268997 0.00232055 -0.00014332 0.00003733 -0.00010032
270 1 21.535607 26.457120 37.137119 -0.08064647 0.03428368 0.01775778 0.00004005 0.00007195 0.00005507
271 1 38.844629 29.077729 4.780974 0.01897871 -0.01999035 -0.02832409 -0.00005278 0.00003241 0.00008188
272 1 32.759581 8.010885 24.483387 0.00334613 -0.02891767 -0.00162684 -0.00028599 0.00020192 -0.00045206
273 1 10.314686 38.138060 32.164990 -0.00318842 0.01222820 -0.00032250 -2173.74302247 7094.59013635 2903.84716696
274 1 15.049828 1.134833 11.168245 0.01002112 0.01780042 0.04447560 0.00476717 -0.02102718 0.01743604
275 1 13.910540 0.684723 15.881504 0.05495860 0.02393029 -0.05748565 -0.00072677 0.00137536 0.00215132
276 1 39.068147 37.828213 22.396302 -0.00002436 0.01355681 -0.01422004 -0.00007767 -0.00015890 0.00006637
277 1 32.990740 14.283267 39.100779 0.02176076 0.00884088 -0.00914463 -37153.79636992 -378210.07308130 -9856.57280811
278 1 15.547891 15.195423 24.518129 0.01239587 -0.00901552 -0.05151126 0.00016865 -0.00009803 -0.00012834
279 1 12.350837 14.357526 18.257161 0.00497043 0.00418062 -0.04907505 2109923.48850121 987507.94441180 -383824.71574833
280 1 22.158500 29.710046 12.105378 0.02344639 0.00027246 -0.01847756 0.00042212 -0.00024042 0.00041251
281 1 9.834141 33.818541 28.713690 0.01966978 -0.02244820 -0.00664518 11748.65123041 39513.44783247 28388.14730145
282 1 15.512169 24.326563 17.529065 0.02224863 0.00076595 0.04828227 0.00022355 -0.00017075 0.00017676
283 1 27.053896 36.558524 15.636302 -0.00251710 -0.00532610 -0.00790818 3830.03340014 -2816.12768851 -3992.18022924
284 1 5.859021 18.346750 21.441029 -0.01791976 -0.00711860 0.01332196 -0.00006737 -0.00007021 -0.00002496