ITEM: TIMESTEP
0
ITEM: NUMBER OF ATOMS
3615
ITEM: BOX BOUNDS pp pp pp
0.0 36.522899
0.0 36.522899
0.0 36.522899
ITEM: ATOMS id type x y z vx vy vz fx fy fz
1 1 16.059373 29.677733 11.297623 -0.04782604 -0.00592934 0.01163073 0.00006924 -0.00005291 0.00011894
2 1 20.499771 35.408446 21.197445 0.01852876 0.01307473 0.03804400 -2.25338934 0.18506680 1.47028842
3 1 16.503495 9.817854 34.189082 -0.02150115 -0.03197903 0.01862199 0.00017146 0.00011890 0.00003096
4 1 29.139023 17.085232 11.382610 0.01691920 -0.00347887 0.03333164 -0.00008879 0.00003672 0.00012926
5 1 12.578204 33.061432 30.685899 0.03559077 0.03872779 0.01221871 0.00018092 -0.00006608 -0.00009450
6 1 6.060191 34.098312 0.809234 -0.05497301 -0.03722670 0.01642611 0.00008308 0.00019684 0.00008703
7 1 22.978157 32.876535 26.039958 -0.03079371 -0.02049168 0.01436890 0.00022515 0.00005409 0.00010114
8 1 19.967169 14.092186 34.111881 0.00617738 -0.03314638 -0.05426873 0.00002152 -0.00011135 0.00012152
9 1 24.222363 0.143582 8.106607 0.02438843 0.03741925 0.02536396 0.00001184 -0.00007871 0.00009816
10 1 25.081949 30.181994 27.115331 -0.00315707 0.00692954 -0.01881279 -1573.76725857 343.73586513 -649.45758035
11 1 17.565948 14.198263 23.939625 0.00349575 -0.07277853 -0.04659205 -0.00016996 0.00004913 0.00002783
12 1 30.760063 7.829657 17.169832 -0.00988561 0.02705327 -0.03049766 -0.00002719 -0.00000607 -0.00002102
13 1 8.022091 10.936302 28.019882 -0.00172819 -0.01253740 -0.03068739 0.00004588 -0.00005663 -0.00003695
14 1 7.609119 36.286682 32.775914 0.05169060 -0.03222907 0.02059218 0.00002690 0.00012567 -0.00011077
15 1 1.085527 28.935304 35.737854 -0.04869088 -0.02876688 -0.03350236 0.00014980 -0.00004469 0.00008044
16 1 27.646965 9.509206 16.436147 0.02293562 -0.07147543 -0.03251054 -0.00009345 0.00002540 0.00007483
17 1 15.311725 22.927346 5.974020 -0.04519827 -0.00062120 0.03031415 -75.81178354 180.50802026 91.02063268
18 1 21.923554 16.296391 23.366988 -0.02094176 -0.02568757 -0.00008600 0.00009078 -0.00002817 -0.00003299
19 1 4.204953 21.636455 19.644758 -0.00131601 0.01965321 0.03289346 -0.00013078 0.00003875 -0.00004761
20 1 11.221501 11.276721 2.368847 0.00678961 0.01791752 0.02975457 0.00005372 0.00011062 0.00004745
21 1 9.508731 24.511877 10.093629 0.01389965 -0.04105356 -0.00142192 394.78937009 386.79685885 -2113.88619910
22 1 12.674565 25.494593 12.915471 0.01593542 0.00600611 0.04292961 0.00073823 0.00037297 0.00064840
23 1 31.020150 2.312639 16.937850 0.04831711 0.00812819 0.00045766 383.36824316 183.19712744 -527.16744581
24 1 5.092015 29.749520 30.296883 -0.02660802 -0.03821913 -0.02531183 -0.00014113 -0.00003625 0.00018653
25 1 35.552530 35.678863 1.505123 -0.03675798 0.00151885 -0.00338947 0.00003828 0.00005723 -0.00013206
26 1 25.816815 5.542163 1.085381 0.04244152 0.05119152 0.01004914 -0.00007385 0.00000824 0.00014369
27 1 30.108795 6.441775 0.678668 -0.00743222 -0.01641479 0.00612441 -0.00010900 0.00003389 0.00003462
28 1 36.436598 26.181693 3.450561 0.02296056 -0.01318386 0.02110411 -0.00001168 0.00010891 -0.00000132
29 1 10.053084 26.660130 24.471972 -0.01071566 0.02014728 0.01043576 -0.00005894 0.00001376 0.00018282
30 1 2.434726 21.263401 1.022413 -0.02990945 -0.01438362 0.01727720 -0.00001599 -0.00002702 0.00005255
31 1 33.517416 1.983433 27.013638 -0.01826265 0.00328562 -0.02676352 0.00004794 -0.00012554 -0.00007290
32 1 25.307562 7.182813 7.945882 0.03812562 -0.00694611 -0.05084310 -0.00014710 0.00000731 -0.00002667
33 1 11.181876 12.267127 10.871883 -0.05565753 0.01108649 0.02633378 0.00014134 0.00014472 0.00007053
34 1 6.415369 27.431785 11.554843 0.00975761 0.00705481 0.03307979 -0.00051378 0.00054033 0.00045745
35 1 28.216146 30.433907 25.326367 0.01168933 0.00438946 0.06648172 0.00212264 0.00038223 -0.00125905
36 1 26.982414 35.658094 35.227188 -0.03659195 0.00602072 0.03857482 -0.00014427 0.00001917 -0.00024097
37 1 8.669842 2.565853 8.917633 0.02365709 0.00282154 -0.03081396 -0.00007893 -0.00005704 0.00026960
38 1 23.278398 26.722581 28.847459 -0.01021821 -0.02108523 -0.01396607 -0.00041191 -0.00095302 0.00025968
39 1 1.806552 15.040757 7.629735 0.01828982 0.01191899 0.00410105 0.00002964 0.00011823 0.00000511
40 1 29.126532 30.657091 17.055159 0.01371553 0.01095705 0.00714854 0.00008875 -0.00004244 -0.00003886
41 1 35.010535 31.184790 9.810901 -0.05666851 -0.05275381 0.03449843 -0.00018279 0.00007759 0.00016828
42 1 24.257720 5.811879 17.395018 0.00639642 0.02754963 -0.04639619 -0.00002350 -0.00007425 0.00008594
43 1 19.419689 11.903289 12.761448 -0.01715742 0.00585090 0.00614792 -0.00000172 0.00001274 0.00012924
44 1 5.390577 15.930157 27.540271 0.01378560 -0.00311137 0.01899433 0.00002677 -0.00005351 0.00007814
45 1 10.616914 19.010879 21.277554 -0.03603880 -0.04551483 0.00785529 0.00011408 -0.00005990 -0.00015029
46 1 2.319282 20.228677 24.425401 -0.01497713 0.01417353 -0.05306591 -0.00001633 -0.00006163 -0.00005284
47 1 31.060163 17.405580 21.711486 -0.02460351 0.05231286 0.02927524 0.00002370 0.00011074 0.00003239
48 1 15.790137 31.272130 2.367124 0.03639838 -0.02600694 -0.04899371 342.80941917 12444.38572618 5340.57647812
49 1 29.240613 33.414328 5.169859 -0.01173008 -0.01130347 -0.02601529 -0.00003812 -0.00008640 0.00002427
50 1 3.133264 16.834201 12.467400 0.02253911 0.01496627 -0.03029402 0.00012957 0.00005856 -0.00005952
51 1 8.644446 9.139799 9.376556 -0.01335958 0.01605834 -0.02514740 -1037.63968499 1399.17308476 195.96756326
52 1 2.488647 31.535191 7.601467 -0.00701284 0.00871644 -0.00866500 -0.18405939 -2.34527328 1.75747684
53 1 15.297780 18.240779 8.027549 0.03010140 -0.08890589 0.00287671 0.00007741 -0.00023336 0.00015858
54 1 32.049710 6.941720 23.926050 0.00247020 0.03026941 0.01416382 -0.00006603 0.00012501 0.00015002
55 1 8.583251 35.616628 18.285920 -0.00433989 -0.02780576 -0.02671820 -0.00005811 -0.00010494 -0.00005237
56 1 32.720107 23.495180 15.569870 0.01826590 -0.01484222 0.00713878 0.00012399 0.00025855 -0.00004511
57 1 8.087371 1.419703 9.992227 -0.01434489 0.04746556 0.04002792 0.00018979 -0.00008532 -0.00006628
58 1 2.699939 13.423951 23.328538 -0.02031371 -0.01044581 -0.00066515 -0.00016868 -0.00010925 -0.00018313
59 1 22.886075 26.376662 30.449428 0.01002763 -0.01588142 -0.02468670 -0.00007391 -0.00020448 0.00030683
60 1 0.244343 13.314351 18.501889 -0.03459136 0.03909588 0.00637708 -0.00005370 -0.00003878 -0.00017085
61 1 0.437272 29.410095 27.189805 -0.02115764 0.01805960 0.01687350 0.00000353 -0.00009229 0.00011659
62 1 20.883358 30.433064 23.234440 -0.01798801 -0.01431085 0.01034579 0.00002821 -0.00017792 0.00013710
63 1 34.826276 22.239407 32.535785 0.04110576 -0.01566202 -0.01966584 0.00002152 0.00000018 -0.00009495
64 1 7.935741 23.202528 5.353726 0.01072292 -0.02799105 -0.05521766 -0.00001123 -0.00005363 -0.00047898
65 1 26.563795 33.488855 26.074405 0.01916699 -0.05647710 0.05784327 -39590525.85097251 -58940122.67391948 -22659677.83035012
66 1 9.365799 29.924213 24.839901 -0.04542946 0.00794739 0.03930661 0.00010079 0.00001563 0.00000539
67 1 13.802744 27.706606 26.186946 -0.03496655 -0.04866510 -0.01616778 0.00011064 0.00001683 0.00001904
68 1 7.602290 20.263108 19.928934 -0.01527204 0.04799956 0.00733992 -0.00000596 -0.00005064 -0.00012081
69 1 34.404481 28.087808 1.288174 -0.03283230 -0.00018033 0.03214848 -0.00005081 0.00008435 -0.00007945
70 1 29.762171 23.840536 19.048097 -0.04844395 -0.05553834 0.02307506 -0.00005892 -0.00001621 -0.00015679
71 1 10.267023 12.716388 30.812896 -0.05557385 -0.00973651 -0.00682134 -0.00002912 0.00001166 -0.00000218
72 1 22.573613 29.286849 28.676329 -0.02381463 -0.05417910 -0.01201644 0.00106286 0.00048249 -0.00060771
73 1 26.389980 33.841356 21.904805 0.02824133 -0.02415693 -0.00369061 -0.00007315 0.00010256 -0.00117198
74 1 23.175923 8.631751 7.753778 -0.00805911 -0.00244251 0.00420839 -0.00004198 0.00005914 0.00000878
75 1 27.660144 22.779170 5.641274 -0.07084245 0.00156065 0.01095375 -0.00001791 -0.00001776 0.00011119
76 1 12.194830 33.816830 8.669506 0.03276807 0.05336364 0.01686145 0.00006132 -0.00004213 -0.00012816
77 1 4.024397 23.062022 21.860266 -0.02214622 0.04827813 -0.03741327 -0.00010310 -0.00007376 0.00010194
78 1 16.198638 29.789180 22.319900 -0.00291893 0.01236339 -0.06649399 -0.00006717 -0.00017943 0.00013164
79 1 28.239142 33.341806 32.803792 0.02626216 0.02436892 0.01635260 -0.00006073 0.00010348 -0.00000788
80 1 21.935124 7.877127 28.713119 0.07979719 -0.01369225 0.00032078 0.00008814 -0.00009339 0.00001998
81 1 15.785089 25.941058 33.770721 -0.00191509 0.01452590 -0.01817882 0.00012024 -0.00002177 0.00003657
82 1 15.275790 29.700490 3.209620 -0.01106038 -0.01844868 -0.02123844 2.86362956 8.74963786 -4.69041514
83 1 20.173594 2.785298 1.820106 0.00152012 -0.02178169 0.04502739 0.00003487 0.00001761 -0.00006943
84 1 27.743412 3.684095 11.827530 -0.04364285 0.00460834 -0.00411244 -0.00019120 0.00026788 -0.00007108
85 1 25.838603 22.334865 8.240855 -0.03714967 -0.00984171 0.01134989 0.00002141 0.00011972 -0.00019830
86 1 10.129514 15.040603 5.960742 0.00668392 0.00135714 -0.05324848 0.00015484 0.00014431 0.00007144
87 1 22.195704 6.834982 6.051476 -0.01191344 -0.01355459 0.03697192 -0.00012372 -0.00003995 -0.00012781
88 1 34.370839 32.614952 1.767694 0.01675138 0.01287191 -0.00555987 -0.00015826 0.00004338 0.00005483
89 1 31.869009 17.242439 25.750019 0.03297233 0.01496540 -0.01158511 -0.00010856 -0.00009215 0.00010421
90 1 2.726290 1.340465 29.473457 0.03692930 0.01904788 -0.01059602 -0.00008545 0.00001541 0.00006626
91 1 15.627403 6.843043 25.480199 -0.00783858 -0.04868449 -0.01859235 -1427868.49026284 1040275.05446413 -1945844.32144781
92 1 23.940218 32.928465 31.045958 0.03044708 -0.01345028 -0.02479928 -0.00030156 0.00019150 0.00050577
93 1 21.438644 29.964554 17.469355 0.02220659 0.03481381 0.00986919 -0.00002000 -0.00015540 0.00001824
94 1 24.404311 16.436481 2.219682 0.01667581 0.08618700 -0.03528507 0.00017668 0.00005894 -0.00007080
95 1 11.895074 6.308633 20.983495 0.05869021 0.03807637 0.06630144 -0.00006310 0.00011911 -0.00023979
96 1 14.337642 6.489373 31.152925 -0.02663154 -0.04262246 -0.02895905 0.00001209 -0.00001173 0.00004439
97 1 34.543632 33.416526 16.640888 0.03557671 0.01008317 0.01735766 -0.00004421 -0.00016931 -0.00024564
98 1 1.259095 6.951133 12.712591 -0.05730221 0.02059657 0.01649015 0.00000577 -0.00010041 0.00004481
99 1 33.581492 8.714163 31.532616 -0.05444847 -0.01538720 0.00100836 -0.00005590 -0.00011172 -0.00000838
100 1 5.773730 11.686138 5.284069 0.02957933 0.00927714 -0.02350832 -836.28770021 416.67617026 -658.77292156
101 1 17.630061 20.904363 26.865550 -0.00779523 0.00828240 0.03199493 0.00006102 0.00008694 -0.00008965
102 1 2.894652 22.344363 10.361145 0.01848702 -0.00623407 -0.02052735 -0.00010337 -0.00010067 0.00011872
103 1 16.254258 14.263095 10.660848 0.04116144 0.02886502 0.03644038 0.00000914 -0.00006135 0.00012869
104 1 18.903354 10.351055 19.629633 -0.01188172 0.03376104 0.02854452 -0.00002568 -0.00013957 0.00007319
105 1 14.726599 20.841077 10.032120 0.06788444 0.04644292 -0.00509309 759079.33001165 552015.64551547 -487458.11669072
106 1 21.063788 26.695731 34.476131 -0.00089061 -0.00515332 0.00667427 0.00008369 -0.00003706 0.00010485
107 1 16.127296 24.829387 3.358193 0.01290119 -0.00703353 0.00348018 0.00045329 0.00129084 -0.00174199
108 1 3.473068 32.896152 36.299235 0.01679482 0.03620265 0.05861544 -0.00015823 0.00001453 -0.00005086
109 1 2.249301 26.449452 20.214786 0.01617115 -0.00894491 -0.02566735 0.00001464 0.00021262 0.00009614
110 1 17.936212 12.732961 31.304105 -0.02407760 -0.04313552 0.01760135 0.00017513 -0.00006483 0.00013418
111 1 30.015243 30.023597 14.121930 -0.07112315 0.07051544 0.02596141 -0.00001052 0.00009056 -0.00014311
112 1 20.526746 32.434958 8.497685 -0.06258796 0.02677058 0.00392616 -0.00013040 -0.00015757 0.00001794
113 1 21.625665 29.418598 26.922700 0.02677291 -0.04438641 -0.00719200 -0.00227906 -0.00062902 -0.00014310
114 1 11.041700 0.826280 21.206252 -0.01400675 0.04977037 0.01165592 0.00020250 0.00017751 0.00007749
115 1 26.053361 5.760028 12.435396 0.00803938 0.01029472 0.03239210 0.00003598 0.00011402 -0.00006282
116 1 0.784049 19.926662 15.368562 -0.04879798 -0.01216495 0.00588473 8.80412604 3.16988861 6.62583002
117 1 32.408619 26.522637 7.294389 0.00447699 -0.01669300 0.00746304 0.00003960 -0.00000983 -0.00001002
118 1 2.966982 16.089877 1.125114 0.00650765 -0.02312058 -0.02541691 -0.00001389 0.00009710 -0.00015680
119 1 21.558991 5.374732 6.529999 0.02971467 -0.00088801 -0.00878228 0.00004211 -0.00003843 -0.00015627
120 1 21.298293 28.634713 18.332771 -0.07614864 -0.00177081 0.04120128 0.00001362 0.00002217 -0.00012211
121 1 20.267094 1.544297 30.714282 -0.01543825 0.06069609 -0.02683122 -0.00002526 0.00001868 -0.00008606
122 1 35.103355 15.452905 6.201030 -0.00787897 0.04169000 0.01210793 0.00009659 0.00000880 -0.00000431
123 1 24.370750 5.698957 14.605008 0.03407535 -0.01441803 0.02438911 -0.00011370 0.00001561 -0.00004847
124 1 8.475076 19.684771 2.487910 -0.01444588 0.00441703 0.00821208 0.00003763 0.00015125 0.00005183
125 1 3.240951 32.307692 25.176434 -0.04637405 -0.04864151 0.02591895 -0.00007981 0.00005815 0.00007219
126 1 34.652599 2.620099 3.489142 0.01452578 -0.03645658 0.03396780 0.00009144 0.00005732 -0.00018282
127 1 27.319045 21.460279 12.326778 -0.00164984 0.02138119 0.04436684 -0.00016691 -0.00004587 -0.00003720
128 1 2.444495 20.233967 9.507664 -0.04629841 0.01055412 0.01842791 0.00004419 -0.00001829 -0.00022143
129 1 17.755738 9.281137 33.664501 -0.00984908 -0.01142522 -0.02191016 0.00001409 -0.00001966 0.00002472
130 1 24.358536 27.307994 20.578967 0.01587735 0.00668944 0.03647032 -0.00014333 -0.00005133 0.00000428
131 1 22.468557 24.714913 10.700714 0.02237694 -0.00265012 0.03486546 0.00003283 0.00008529 -0.00003871
132 1 8.247301 12.062680 19.860687 0.00013842 0.01336579 0.00988183 0.00012110 0.00003764 -0.00012731
133 1 7.161417 18.366832 11.162975 0.05141097 -0.02366859 0.03958030 0.00001762 -0.00014182 0.00000931
134 1 2.148309 29.734325 24.845622 -0.04544121 -0.02084494 -0.01238603 0.00003834 0.00002286 -0.00008909
135 1 12.658508 13.408295 25.486883 -0.00368150 -0.01816806 0.01334458 -0.00033708 0.00003655 0.00000799
136 1 17.225005 5.772463 26.848687 -0.04549011 -0.00110106 0.00566593 -0.26333041 0.17646045 -0.22547762
137 1 19.497411 4.423577 0.291583 0.00688991 0.00036144 -0.02009218 0.00002582 -0.00015662 -0.00013791
138 1 26.935113 25.485043 17.374418 -0.00445204 -0.00754708 -0.05547744 0.00002174 0.00011238 0.00001630
139 1 7.546107 24.828015 24.502803 -0.06199885 -0.05517997 -0.00078008 -0.00014900 -0.00030485 0.00005155
140 1 31.930392 10.066165 25.418192 0.02522038 -0.00902269 0.02280930 0.00004021 -0.00001037 0.00009025
141 1 33.171972 22.803939 14.194381 0.04759201 0.03590989 0.04235448 -0.00009439 0.00005234 -0.00014367
142 1 26.950169 11.084585 13.417722 0.03961368 -0.04475637 -0.01425601 -0.00014843 0.00013307 0.00002186
143 1 22.240436 36.156018 20.224203 -0.02124709 -0.01411322 -0.01328982 -1.33068726 -0.57124010 0.74369677
144 1 5.365685 16.835710 13.513529 0.02177897 -0.04290626 -0.03826693 0.00008187 -0.00001097 -0.00015525
145 1 18.076139 16.945415 9.998259 -0.04224335 0.00611114 0.03756615 0.00019409 -0.00017239 -0.00007896
146 1 0.191306 23.395511 1.708507 -0.00743067 0.03704768 -0.04558903 11.06514218 -151.70900275 463.66721930
147 1 1.590513 14.636580 20.504306 -0.02706800 -0.02346571 -0.02601493 0.00014677 -0.00008053 0.00012929
148 1 3.144342 13.660477 6.994257 0.02526544 -0.00143685 0.05387005 -0.00149107 0.00107704 0.00115392
149 1 36.035745 19.066183 26.304431 -0.00718453 0.01097350 -0.02395791 -0.00011225 -0.00002698 0.00007971
150 1 15.202853 19.170636 2.423363 -0.01051181 0.05835490 0.01930571 -0.00002832 -0.00017429 -0.00010294
151 1 11.185776 32.324219 3.396024 -0.01657113 -0.04141659 0.02250439 109.96100606 -1104.10353645 1302.60715732
152 1 14.418565 2.793986 25.606172 0.03065809 0.01190449 -0.00696097 -0.00035712 -0.00114127 0.00014938
153 1 16.901343 24.227014 6.530517 -0.02397967 -0.01361849 -0.01832486 -1.23536550 -1.00984300 -0.43269547
154 1 24.124924 27.803338 18.497693 -0.01661413 0.00236605 -0.04233262 0.00006612 0.00010721 -0.00003760
155 1 24.785874 9.603618 1.267168 -0.00541101 0.03560979 0.02527779 0.00010897 0.00008377 -0.00007190
156 1 32.642045 2.796943 19.889236 0.00249598 -0.03857518 0.03863246 0.00105125 0.00044246 0.00227135
157 1 33.425845 0.834761 4.288090 -0.00029972 -0.00607519 -0.01425043 0.00016733 0.00013312 0.00015250
158 1 14.414423 20.848795 31.132716 0.01380603 0.01615575 -0.02991939 0.00001995 -0.00018398 0.00008231
159 1 10.430712 4.155132 24.605310 -0.03935295 0.01267534 0.00645277 -0.00005602 -0.00014812 0.00000902
160 1 21.592271 9.515571 16.526423 -0.01259142 -0.03908608 0.03509102 0.00014100 -0.00001814 -0.00013314
161 1 15.321602 16.570876 30.648830 0.00744225 -0.02183882 0.04046996 -0.00013576 0.00004661 -0.00011027
162 1 10.301322 7.882457 32.264667 -0.03373976 -0.02585236 0.00860124 0.00009412 0.00002055 -0.00018614
163 1 2.502007 32.721680 5.625992 0.03023955 0.01001227 -0.02315835 -0.00312071 -0.28129335 0.46832144
164 1 33.741210 17.634000 34.063313 -0.00728709 0.04092217 0.02638777 -0.00010499 -0.00015301 0.00005990
165 1 8.787460 27.305771 7.673930 -0.04539649 0.00363527 -0.02619185 -0.00035392 0.00152463 -0.00153851
166 1 32.867039 17.763113 12.793215 0.02472458 -0.00378021 0.04194414 -0.00018862 -0.00004689 -0.00015852
167 1 15.633876 35.338509 33.761462 0.06332820 0.00419202 -0.01917990 -0.00014040 0.00007501 -0.00007297
168 1 21.605249 35.507784 23.337219 0.02144103 0.04814312 -0.05831520 -0.13189677 -0.01177224 -0.25487299
169 1 22.767046 34.668082 35.511186 0.00805872 0.02901795 0.00995008 0.00014734 -0.00003662 -0.00001899
170 1 19.876931 32.111464 12.697506 -0.01226597 0.01126175 -0.02001088 0.00013683 -0.00006550 -0.00006289
171 1 24.905721 16.921543 13.116764 0.00127920 0.01770024 0.02584797 -0.00003753 0.00001538 0.00004182
172 1 27.859230 26.295724 5.189936 0.05399490 0.01410360 -0.00016616 0.00006902 0.00007758 0.00005132
173 1 6.279192 10.858644 16.937071 -0.04248294 -0.00101524 -0.07882299 0.00002045 0.00016141 -0.00001101
174 1 20.502631 17.563794 29.515143 -0.00742677 -0.04975033 0.02792156 -0.00004727 -0.00013792 -0.00007468
175 1 29.175113 22.890172 24.237387 -0.02258983 -0.00230104 0.02673520 -0.00009299 0.00005324 -0.00007522
176 1 4.169881 23.665659 36.339002 0.00321876 0.00559820 -0.01281488 0.00095490 -0.00008549 -0.00027611
177 1 23.491642 13.377657 5.707195 -0.02534130 -0.02493602 -0.00284203 0.00001970 0.00009546 -0.00016892
178 1 0.762861 10.479512 5.293446 0.01226154 -0.03140981 0.01510353 -0.00041967 0.00001140 -0.00007296
179 1 20.256208 1.609936 9.127346 -0.00923592 0.02779916 -0.00697588 0.00010314 0.00004493 0.00007024
180 1 36.426674 9.588281 14.218920 0.00305746 -0.02855567 0.02205708 -0.00001136 -0.00002814 0.00005407
181 1 8.176008 19.103634 32.433540 -0.01110035 -0.05052561 -0.04855500 -5575629.21743001 -1311523.88104828 -837285.20370856
182 1 9.797780 17.949310 31.005663 -0.01931119 0.04144722 0.00526343 -0.15001878 0.10680155 0.13201712
183 1 2.987052 27.989600 21.429732 0.01935577 0.02588171 0.00615237 0.00014808 0.00012431 -0.00008084
184 1 20.358067 23.511356 15.131761 0.03550973 -0.03487153 0.00594526 -0.00004089 0.00005333 -0.00005713
185 1 17.172584 27.607194 27.465869 -0.02459277 0.02186308 0.04352777 -125.56685909 -48.86276485 -29.12799866
186 1 4.288648 31.987235 11.739317 0.02305828 -0.01637242 -0.04643479 0.00039615 0.00010956 0.00075663
187 1 8.600219 9.272870 2.400328 0.01272715 -0.04991433 -0.01940830 0.00032853 -0.00030000 -0.00042038
188 1 29.887561 4.886167 8.563139 0.00125613 -0.01236079 0.03781971 120057.06211016 270327.00480707 -96371.32881708
189 1 5.683001 20.867075 33.647698 -0.02261246 0.02323148 -0.02028967 -0.00143789 0.00101145 0.00071355
190 1 24.417377 7.259585 27.586869 -0.04838591 0.00344154 0.00388422 0.00012072 -0.00020414 0.00008656
191 1 21.892849 29.986041 30.940676 -0.00192841 0.00104107 -0.03639466 -0.00018460 -0.00008321 0.00044997
192 1 28.954958 2.302327 6.398571 0.01153346 -0.03620836 0.02620816 -0.00069915 -0.00186998 -0.00155873
193 1 22.378034 34.001002 19.546252 0.00404449 0.02659362 0.00017065 -0.01012749 0.00770810 0.00901894
194 1 29.956834 36.497051 24.202106 0.00083319 -0.00183161 -0.02246704 0.00029783 0.00037555 -0.00022925
195 1 8.620903 17.145006 6.917014 0.02804031 -0.01473085 0.01550167 -0.00012609 0.00010323 -0.00019047
196 1 15.314900 7.641532 9.587972 0.00552000 0.00020214 -0.09405939 -2049039.10819237 -1010321.28923607 552843.36958628
197 1 6.218169 35.356074 27.213140 0.00207135 -0.01727963 0.00570204 -0.00000053 0.00011077 -0.00018971
198 1 34.290727 22.005464 30.968457 -0.01921342 -0.01674044 0.02702969 -0.00024189 -0.00006464 0.00011593
199 1 25.418295 17.951470 18.375160 0.00390012 -0.01100582 -0.00308942 -0.00000927 0.00004471 0.00002307
200 1 13.637925 11.169450 36.033563 -0.01676039 0.01581762 -0.01312328 -0.00010929 0.00006686 -0.00005342
201 1 23.890616 33.364716 33.687929 0.00647907 0.00495033 -0.03012974 0.00001204 0.00017801 0.00002032
202 1 0.163794 33.036682 10.056231 0.02045778 0.02910375 0.00793147 -0.00136727 0.00111270 0.00145083
203 1 14.248493 5.184517 19.703532 0.02277134 -0.01930970 -0.02028132 0.00017402 0.00015148 -0.00001693
204 1 0.378501 28.363135 14.862167 0.00429657 0.01592324 -0.02687763 -0.00005090 0.00003124 -0.00003856
205 1 6.990955 18.055842 28.738819 -0.01356461 0.01857185 0.06519516 -0.00034436 -0.00034033 -0.00130143
206 1 13.595435 0.864885 29.635308 -0.00156274 0.00550316 -0.00413164 -217.48854865 -128.52207246 -123.15001082
207 1 36.080774 17.579927 23.788641 0.01067851 -0.05541461 -0.01528433 115455.98231396 352117.47220338 89968.64512862
208 1 12.457654 16.667183 10.390769 -0.00028022 0.01445124 -0.00341908 -0.00025752 -0.00044848 0.00005410
209 1 33.871584 22.195550 10.689330 -0.01265626 -0.00857477 0.00589297 0.00021760 0.00006752 -0.00020373
210 1 36.423810 5.667394 27.569358 -0.06105458 -0.06751318 -0.03587131 0.00003186 -0.00006403 0.00001979
211 1 31.753611 32.935969 14.410720 0.02282847 -0.01349519 -0.00979801 1.27910190 1.40272112 -13.14504380
212 1 5.080974 14.610472 6.196136 -0.02393978 0.01743404 -0.00230370 0.00000803 -0.00006908 -0.00024193
213 1 11.633105 14.363127 0.518794 0.03267993 -0.00561188 -0.01063341 -0.00004049 0.00008729 0.00006858
214 1 29.336298 33.245119 2.268543 -0.00098292 0.02373061 -0.02952607 -0.00004659 -0.00004855 -0.00006996
215 1 18.284836 32.452764 18.363816 -0.00034052 -0.01176892 0.02303377 -33.08204255 111.53304932 238.40589157
216 1 22.840351 34.483503 17.683006 0.01355749 -0.00870248 -0.01756947 0.00100080 -0.00014129 -0.00082903
217 1 33.312629 2.857333 15.651656 0.00537852 0.01916535 0.05301359 -0.04627131 -0.01104501 0.02603179
218 1 21.066146 4.367530 9.566784 -0.00683240 0.00124387 0.03433612 0.00012412 -0.00015371 0.00000683
219 1 9.691833 10.388674 33.743788 0.00533122 -0.02109361 0.01035825 0.00011889 -0.00012205 0.00004078
220 1 4.175103 9.696377 1.052070 0.00573408 -0.03404532 -0.02171363 -0.00008128 0.00000786 -0.00030492
221 1 28.415814 24.455261 7.456728 0.04545349 0.02000820 0.01219560 -0.00004170 -0.00012817 0.00003694
222 1 23.866416 31.535964 5.296175 -0.03224044 -0.03665508 -0.00416414 -0.00013711 0.00001741 -0.00005979
223 1 3.949393 24.093867 25.861152 -0.01105443 0.04833287 0.02954128 -0.00003158 -0.00028123 -0.00008666
224 1 2.452836 20.970054 0.869773 -0.00849000 -0.00740226 -0.07818344 0.00185752 -0.00185536 -0.00080477
225 1 29.573651 20.071723 18.332107 -0.01093514 0.01091483 0.00372662 0.00007990 -0.00002167 -0.00007219
226 1 33.971808 34.922653 28.967494 0.01060807 -0.01293520 -0.01610791 0.00003847 0.00000230 -0.00013826
227 1 20.918204 11.433067 21.289026 0.03941711 -0.03927266 -0.01325495 -0.00001155 -0.00011101 -0.00021017
228 1 20.100221 23.608334 0.888869 -0.03696282 -0.02281030 -0.03002730 0.00004214 0.00006170 0.00005352
229 1 17.659400 10.333142 25.538555 0.04133964 -0.00172984 0.01261378 0.00071840 0.00139724 0.00018114
230 1 21.074592 4.029275 15.274658 -0.01035323 0.02991646 -0.03152321 -0.00007733 -0.00007134 -0.00005288
231 1 27.616269 14.396833 10.830855 0.05794618 0.01594112 0.00915120 0.00005704 0.00007642 -0.00005731
232 1 26.661184 2.295580 2.679021 0.02531022 0.04446206 0.00302829 0.00004215 0.00007234 0.00006183
233 1 16.145079 15.538372 12.171854 0.00042098 0.03269332 -0.00805004 0.00023988 -0.00006998 0.00019917
234 1 31.143189 3.725359 33.952080 -0.00023789 -0.00017027 0.04750492 0.00007305 -0.00003107 0.00000145
235 1 20.338761 33.752980 27.103680 -0.01856832 0.01370248 0.01035323 -0.00012630 -0.00010737 -0.00001245
236 1 0.543762 11.636528 11.745711 -0.03147878 -0.03174977 0.03578438 0.00004480 0.00016217 -0.00000730
237 1 4.515036 16.053757 20.794870 -0.01077646 -0.00775261 -0.05372346 -1031.96739786 1714.41121531 -320.77495772
238 1 30.868822 32.015309 10.291770 0.00648600 -0.00299149 0.03208102 24424.04783213 24350.89232112 -24370.42558432
239 1 27.095925 19.657723 3.953827 -0.05999578 -0.00137332 -0.01498904 -58.06304585 -48.80691637 102.24273224
240 1 31.805021 16.646849 35.204811 -0.00572416 0.03657935 0.01946006 1074.26020573 -3797.06019779 -1850.47646563
241 1 1.703047 4.714939 28.776370 0.00846902 0.08166136 0.02847629 -0.00011475 0.00007955 0.00002046
242 1 18.828192 25.875581 1.996266 -0.01445062 -0.06971409 -0.01114705 42.03001022 -49.00543716 -8.45731468
243 1 34.396851 23.652165 8.444600 -0.01866850 0.06122391 -0.02970100 0.00000856 -0.00014334 -0.00002122
244 1 31.826423 21.011968 18.578586 -0.03301481 -0.05676034 -0.02490348 0.00005597 0.00000044 0.00003725
245 1 30.239817 26.076390 27.329626 0.02183897 -0.02502748 0.01655621 -0.00008264 -0.00016611 0.00005866
246 1 31.057585 12.804807 12.695491 0.02073354 0.00528667 0.00486082 -213368.55878404 363864.30335079 -396247.64738387
247 1 0.734021 25.512497 2.949739 0.00429567 -0.01228369 0.00188629 -0.03327252 -0.13006950 -0.07642296
248 1 12.329071 35.600902 5.758029 -0.00755525 -0.02849413 0.02051210 0.00033662 0.00104863 0.00073279
249 1 21.968247 5.040372 5.346302 -0.02960646 -0.00313996 -0.02351924 0.00000291 -0.00003459 -0.00000236
250 1 25.961145 15.542318 20.848471 -0.01216889 0.02809334 0.07082787 -0.00006587 0.00002519 -0.00010596
251 1 12.919787 30.150903 30.450818 0.05258061 0.03273200 0.01406636 -0.00009912 0.00015570 -0.00004364
252 1 0.581115 26.440855 22.430773 0.00236570 0.02413397 -0.05048745 -0.00000050 -0.00002124 0.00001113
253 1 23.236196 8.119615 7.239800 -0.01763037 -0.01080082 -0.01114587 -0.00007647 -0.00001106 0.00012365
254 1 22.868136 17.524497 12.255240 0.00645378 0.04061986 -0.04020454 -0.00007825 0.00003652 0.00016021
255 1 21.278301 28.615533 10.122591 0.00284618 0.01965318 -0.00894522 -0.00013820 0.00000117 0.00005818
256 1 5.346415 17.938965 34.644323 -0.01072607 -0.00568663 -0.02554506 -0.00142480 -0.00063456 0.00132710
257 1 16.956169 26.800238 0.696194 0.02312144 -0.00729554 0.00880747 -28981800.32821947 -54178837.37632579 12609710.41534076
258 1 21.507358 21.910618 9.485954 -0.05618104 0.01392164 0.02549300 0.00004464 0.00010303 0.00015838
259 1 14.965698 8.956656 32.857870 -0.01290124 0.03077495 0.00461607 0.00002504 -0.00009691 0.00006847
260 1 25.086388 34.645027 30.138267 -0.03094904 0.02175014 -0.03070481 -0.00025749 0.00026184 0.00092209
261 1 18.953051 2.687026 18.927150 -0.03817506 0.00908913 -0.00915963 -0.00008068 0.00049021 -0.00028814
262 1 33.307751 23.104564 4.977453 -0.00048164 0.01712163 0.01848715 -0.00029466 -0.00012385 0.00043959
263 1 22.408743 25.997309 18.710007 -0.02837299 -0.01281028 0.03106498 -0.00005519 0.00028245 -0.00011553
264 1 31.039722 25.114464 4.166620 0.03342349 0.02914223 -0.01874410 -0.00013768 0.00007799 -0.00000032
265 1 28.309850 9.104285 34.985671 -0.00352901 -0.03154895 0.03158817 -0.00022086 0.00001741 -0.00010015
266 1 5.137313 1.908007 7.364232 0.03267443 0.03740551 0.00611979 -0.00006788 -0.00015441 0.00026336
267 1 15.290308 1.227230 21.985850 0.05669534 -0.00194660 0.04101898 -0.00018372 -0.00004905 -0.00004087
268 1 33.769099 21.136595 0.290333 -0.02017346 -0.02260664 0.02013252 -0.00116182 -0.00071155 -0.00055052
269 1 14.005811 24.212446 22.399539 0.00763830 -0.04063371 0.05998288 -2.17917993 10.79675163 -2.00258784
270 1 28.470636 26.759939 0.914546 -0.01268761 -0.01817501 0.03473805 -0.00010672 0.00001437 -0.00018868
271 1 20.881280 3.865916 30.894143 0.02196977 0.02823291 0.03435840 -0.00004033 0.00004279 -0.00003640
272 1 34.157694 23.329856 18.121499 0.01524020 0.00305695 0.00487440 -0.00003426 0.00006075 0.00021168
273 1 6.027475 22.316855 31.941148 -0.01974587 0.00926984 -0.01282509 -0.00094850 0.00154562 -0.00021895
274 1 1.991978 12.629467 27.849469 -0.00361008 0.01577923 0.01396334 -0.00006533 -0.00003749 -0.00009648
275 1 17.559463 9.924452 1.861303 -0.01038532 0.06006133 -0.01466365 0.00008630 -0.00000914 0.00008789
276 1 26.117891 32.548396 12.183887 -0.00402811 0.01510274 0.00232102 -0.00044143 -0.00003533 -0.00006951
277 1 31.914266 17.064993 22.416304 0.00167831 0.02409545 0.05085810 2806521.23745111 -4282583.22374268 1607708.05525790
278 1 30.093227 19.732405 4.191341 -0.04420107 0.00524026 -0.01630571 -0.00466263 -0.00021434 -0.00018788
279 1 30.494262 22.112078 35.139101 0.01242376 -0.03284042 -0.02230774 -0.00006982 0.00015601 0.00005194
280 1 29.653222 20.613679 2.940859 -0.00781448 -0.03584106 -0.00340486 -0.00999661 -0.00383020 0.00428114
281 1 28.604799 9.296186 24.302443 0.05932399 0.01584706 0.02312918 -0.00003684 -0.00005355 -0.00007945
282 1 29.759534 30.099687 30.204472 0.01767487 0.03893932 -0.01546951 0.00018176 -0.00021725 0.00017906
283 1 14.902340 0.079624 35.649830 0.03365906 0.03206961 -0.04504249 24.58253040 -3.36936489 5.35522403
284 1 9.434484 15.569559 7.221274 0.02526483 0.01325993 -0.01925184 -7146.59859952 -8035.11827509 3993.40444414