ITEM: TIMESTEP
0
ITEM: NUMBER OF ATOMS
4896
ITEM: BOX BOUNDS pp pp pp
0.0 42.332112
0.0 42.332112
0.0 42.332112
ITEM: ATOMS id type x y z vx vy vz fx fy fz
1 1 11.796464 36.088919 40.215732 0.04755134 -0.01072234 0.01793676 0.00010264 -0.00012734 -0.00001952
2 1 22.729116 37.879107 30.508250 -0.02426698 0.02489302 0.03075412 0.00003118 -0.00001950 0.00000584
3 1 7.185250 34.547271 37.365723 -0.03567361 0.03642358 0.01221204 0.00005340 0.00008285 -0.00001496
4 1 36.945782 9.020012 10.285353 -0.04094273 -0.02601140 0.02094175 2544.59487209 3791.41854271 -1830.77699546
5 1 17.767396 19.663863 35.053411 -0.01078056 -0.00733008 0.05318443 0.00007837 0.00006392 -0.00015698
6 1 9.988823 9.988756 35.744914 0.04180833 -0.00403941 0.01957477 -0.00000065 -0.00000598 0.00011901
7 1 29.366182 14.536496 38.126657 0.00501832 -0.02015998 0.00919085 0.00020597 0.00007204 -0.00016856
8 1 5.589059 38.366484 14.898826 -0.03716853 0.01343327 -0.09255256 -0.00015501 -0.00004854 -0.00012037
9 1 4.367791 34.099447 31.349516 -0.01088842 -0.00450314 0.01466525 -0.00016812 -0.00019570 -0.00004183
10 1 25.742981 29.112498 41.584302 -0.02321420 0.01636155 0.01951111 -0.00008939 -0.00004767 0.00002408
11 1 3.895266 21.880700 1.261509 0.02160915 0.01854443 -0.04507157 -0.00012175 0.00010676 -0.00015493
12 1 9.743735 11.707247 18.829709 -0.01260229 -0.00485341 -0.00174885 0.00003005 0.00003157 0.00013655
13 1 17.657677 35.436409 9.854699 0.03956358 0.04713890 -0.02244544 -0.00002795 0.00001936 0.00010782
14 1 18.175749 9.799339 28.705842 -0.03648896 -0.05182759 0.01018722 34.80919223 794.66141781 2188.55262975
15 1 40.477505 4.001262 13.121348 -0.01000526 -0.07060077 0.01328578 -0.00011234 0.00003622 -0.00006313
16 1 13.290961 4.390897 33.074596 0.01594369 0.02611845 0.03213386 0.00015268 -0.00010524 -0.00000278
17 1 17.997323 18.999925 28.303335 -0.01237720 -0.02455410 -0.01859934 0.00000597 -0.00017819 0.00008711
18 1 25.421560 20.958648 16.805032 0.01930168 -0.04131414 0.00578194 0.00004932 -0.00011362 0.00006180
19 1 27.816100 30.262532 15.913541 -0.01704977 -0.05037880 -0.02037381 -0.00002531 0.00005931 0.00012361
20 1 16.669358 29.948206 30.074714 0.01615009 0.03739036 0.05404375 -0.00013815 0.00005651 0.00030841
21 1 1.909803 38.930418 20.907435 0.04174170 0.05354310 -0.03665068 -0.00014596 0.00010695 -0.00009995
22 1 17.201908 8.413697 18.499402 0.00042858 0.04709548 -0.02618126 -0.00003134 0.00008396 0.00007094
23 1 38.322823 24.129771 15.385540 0.05208145 -0.01512528 -0.01381261 -0.00009502 -0.00004191 0.00015252
24 1 40.112357 1.189255 1.283717 -0.03154921 -0.01050205 0.00966925 -0.00002563 0.00016183 -0.00007385
25 1 9.911374 37.899844 33.255022 0.08438303 -0.01236567 0.02736081 0.00004691 0.00002799 -0.00000177
26 1 17.993065 15.665225 28.052452 0.00910192 -0.04165537 0.00739754 0.00002901 0.00022015 -0.00003955
27 1 36.049883 22.945334 29.419431 -0.01353027 -0.00443377 -0.01335704 -227.18944509 -71.10722280 -127.83691570
28 1 24.905934 2.548715 25.797869 0.03792086 0.01338736 -0.04615696 -0.00011994 0.00001569 -0.00006423
29 1 1.228171 5.784321 14.428050 -0.08164699 -0.02459787 -0.04137681 -0.00001840 -0.00009130 0.00011768
30 1 40.252921 33.060271 22.513498 -0.02163451 -0.03776870 -0.02733967 -0.00002562 -0.00006941 0.00009887
31 1 23.658804 19.774426 20.086391 0.02335593 0.01585563 0.01383710 0.00011481 -0.00006943 0.00012084
32 1 3.543323 20.053600 24.780646 -0.05069052 -0.02224541 0.03045071 -0.00010287 -0.00009752 0.00001234
33 1 10.986660 10.362402 26.146551 0.03274666 0.00674704 -0.00689741 0.00009566 -0.00003847 -0.00001914
34 1 37.245635 21.645534 12.441593 0.01280489 0.01479807 0.02320834 -0.00015723 0.00009101 -0.00004304
35 1 2.655716 4.719623 5.638349 -0.03454700 0.00494828 0.04298440 -0.00006652 0.00008013 0.00010774
36 1 41.990990 30.333600 13.133056 -0.01463701 0.00593420 0.00461353 0.00007836 -0.00003316 0.00003177
37 1 25.776060 13.426390 21.081499 -0.00135615 -0.03169646 0.04452870 0.00002799 -0.00001119 -0.00000410
38 1 9.660233 0.963520 16.022210 0.03306813 0.04463807 -0.03039461 0.00006103 0.00008946 0.00008166
39 1 32.229874 16.926833 12.843131 -0.01364639 0.02049003 -0.01028908 -0.00001355 0.00008012 0.00014750
40 1 39.661894 40.445738 34.774806 0.01168305 0.02031069 0.01455570 -0.00008558 -0.00016475 -0.00017941
41 1 20.823941 36.059509 24.376752 0.00250532 -0.07660408 0.00560768 -0.00000672 -0.00010805 -0.00003943
42 1 37.220125 14.475966 15.111615 0.00421776 -0.02456047 0.01734748 0.00009052 -0.00000991 0.00003603
43 1 36.433563 5.712617 21.071222 -0.02697436 0.05476385 -0.01430785 52.78920730 54.33577026 18.19186337
44 1 6.863678 16.529799 20.185778 -0.02886795 0.04089572 -0.01504188 -0.00001532 -0.00012716 -0.00014979
45 1 20.955468 18.533496 40.301655 -0.01224414 0.00415317 -0.01428362 -0.00000383 -0.00005659 0.00017444
46 1 9.146539 40.068814 32.854758 -0.01095244 -0.00333014 -0.00144941 0.00008369 0.00003382 0.00015852
47 1 0.622409 36.864119 34.837647 0.03182109 0.00626810 -0.02454828 0.00001133 -0.00014827 -0.00000614
48 1 0.106536 11.678744 12.664721 0.06699317 -0.03282623 -0.06383771 -0.00012665 0.00024994 0.00002629
49 1 0.531016 11.371596 31.470184 0.00589419 0.00178836 -0.00589376 -0.00000268 -0.00008651 0.00004598
50 1 14.441796 35.667277 14.084667 -0.00836605 0.00541690 0.02631701 0.00000283 0.00000688 0.00001317
51 1 8.892482 2.641711 37.979909 0.03139672 -0.00468981 0.01217099 0.00003744 0.00017179 -0.00029569
52 1 2.095914 29.580482 31.686129 0.01324693 -0.02901877 -0.05176017 -0.00002569 0.00007047 0.00015994
53 1 26.454455 32.348071 40.710318 -0.01112335 0.05526638 0.01190960 0.00012497 0.00002819 -0.00012993
54 1 5.305495 35.637248 14.738032 -0.00762020 -0.04494342 0.00115023 21.15728774 -5.26638265 21.30006573
55 1 9.934973 41.308569 25.133053 0.00754249 -0.00062149 -0.00180196 -0.00001575 -0.00017215 -0.00018439
56 1 2.177521 25.943554 27.810609 0.07679025 0.00965130 0.00728309 -0.00007523 0.00004856 0.00004695
57 1 28.548135 28.958683 16.931331 -0.00271918 -0.02011583 0.00045385 1287.25979131 1519.38566771 -643.67468290
58 1 24.326670 30.432940 36.545984 0.03848446 -0.01543433 -0.01496257 0.00007780 -0.00004976 0.00010898
59 1 8.255410 23.406334 19.272436 -0.02218496 -0.01215403 0.01307700 -0.00003391 0.00008125 0.00011355
60 1 24.283871 38.991226 16.083866 -0.01268056 0.01623909 0.00784517 0.00004555 -0.00000391 -0.00002902
61 1 24.514512 6.484068 25.894536 0.01947046 -0.03393456 0.04503389 16479616.74523653 81030079.15348169 104190365.97988889
62 1 16.281947 33.923339 16.753870 0.00159273 0.01983441 0.00415282 -0.00008914 0.00002931 -0.00005464
63 1 33.274658 11.437631 2.642592 0.01095451 -0.06445167 0.01488193 -0.00001135 0.00009000 -0.00000024
64 1 35.365498 15.001525 24.261897 -0.02492249 -0.01174652 0.00471383 0.00010393 0.00000872 -0.00003709
65 1 22.330799 21.823077 29.269480 -0.05785185 0.05585125 0.01385926 -1091893.86312277 206.42839373 -1222074.69600779
66 1 6.374092 9.263097 14.929724 0.03178099 -0.03866611 -0.02445074 0.00006752 0.00013441 0.00017158
67 1 17.703792 3.582864 29.779987 -0.03740614 0.04077504 0.02143448 -1071.52029114 -24244.89076835 -1613.98552293
68 1 9.076212 17.390938 17.630821 -0.02859108 0.00026673 0.07642272 -0.00002974 -0.00004129 0.00000188
69 1 21.778124 30.609733 38.312551 -0.00198659 0.03098875 0.02788724 0.00026267 0.00002022 0.00009163
70 1 3.203746 9.062894 26.423598 0.01472969 -0.02645286 0.03319009 0.00011201 -0.00002004 0.00011949
71 1 13.433083 18.207520 32.032345 0.00082688 0.00373794 -0.01702906 -0.00005724 -0.00001767 -0.00002680
72 1 27.563175 20.422746 24.788293 -0.00046225 0.01896645 -0.01014131 -0.00000138 -0.00012495 0.00005258
73 1 5.462819 33.673366 31.994294 0.03734979 -0.02200144 -0.00798527 0.00024268 0.00013502 -0.00008444
74 1 40.514173 0.567332 20.620241 -0.06311348 0.00469819 -0.06422881 0.00001078 0.00001657 -0.00011014
75 1 1.766779 10.617214 19.218781 0.04636961 0.03514199 0.00514538 -0.00016185 0.00004019 -0.00006262
76 1 38.376939 4.226097 37.926629 0.02012318 -0.04850463 -0.01904311 -0.00003797 0.00003652 0.00004036
77 1 6.813750 10.140363 26.035749 -0.02545907 -0.00296031 -0.01092808 -0.00003642 0.00010985 -0.00001260
78 1 20.504684 33.775486 29.894249 0.00316507 -0.04468293 0.03830299 -0.00007234 0.00011340 -0.00004885
79 1 20.521446 27.591740 34.733930 -0.00709010 0.00821988 0.01070468 0.00002384 0.00002065 -0.00009505
80 1 39.981528 17.896955 24.625703 0.00996273 0.04163483 0.06734188 0.00000637 -0.00001248 -0.00001035
81 1 39.070399 31.114654 18.974939 0.03488992 0.02877468 -0.03192710 0.00006624 -0.00006636 0.00000650
82 1 18.665358 24.474870 0.937173 0.03952181 0.00080400 0.03132459 0.00002490 -0.00018815 0.00008355
83 1 27.791919 12.060917 1.852322 0.00183531 -0.00686381 0.01078086 -0.00000141 -0.00001095 -0.00003652
84 1 2.386136 5.701984 31.144318 -0.00221402 0.03853239 -0.02438513 -585.00589069 506.48252533 -442.75997747
85 1 4.365491 0.958476 10.035319 -0.01923444 -0.00228889 -0.00115459 -0.00004254 0.00008985 -0.00004148
86 1 9.514843 20.643477 3.744327 0.01801386 0.01138956 -0.03443110 0.00017965 -0.00000843 0.00005511
87 1 12.796360 6.780782 34.288591 0.03142338 0.00416689 -0.02684825 -0.00003052 -0.00012712 0.00000004
88 1 15.536527 35.530556 20.768472 0.00487723 -0.05661062 0.04115742 0.00000532 -0.00004333 -0.00013776
89 1 8.055862 37.943194 26.504429 0.00534815 -0.00355404 0.00549543 0.00012925 0.00019857 0.00000010
90 1 5.625715 4.983115 6.760086 0.02733376 -0.02079498 -0.03917557 0.00007837 0.00000448 -0.00005137
91 1 29.200717 33.161978 3.999477 -0.01873614 -0.03470818 0.06075870 0.00007659 -0.00000942 0.00002976
92 1 17.277460 28.869340 13.410583 0.03364675 -0.03310506 -0.02461656 0.00009548 -0.00005538 -0.00009864
93 1 18.358476 5.518279 32.438400 -0.05810336 -0.00593227 -0.05685547 0.00050048 0.00119459 0.00187859
94 1 21.850628 7.284759 37.742804 -0.02333293 -0.02111795 -0.01652150 0.00007606 0.00004378 0.00010292
95 1 23.452953 39.856441 5.603327 0.01549041 -0.02728204 -0.01158144 -0.00004696 0.00005854 -0.00005856
96 1 10.430555 4.982046 29.836380 -0.02650063 -0.01608857 0.01681904 0.00021093 0.00017185 -0.00000533
97 1 0.841893 32.262988 19.028676 0.04397227 -0.03486834 -0.00958767 -0.00001508 -0.00019132 0.00007080
98 1 30.228038 11.136974 24.817660 -0.02248404 0.00538703 -0.02039891 0.00003240 0.00006196 -0.00000699
99 1 7.831934 29.836779 2.634578 -0.01888460 0.01726950 0.06507408 -0.00006210 0.00002424 -0.00013307
100 1 3.870884 26.377592 36.406129 0.00037900 0.03222502 0.03565236 -0.00018169 -0.00004915 0.00010464
101 1 29.379013 3.505064 37.277207 0.01351003 0.00717437 -0.00376285 -0.00007936 -0.00003462 0.00003738
102 1 28.394922 7.151769 15.395887 0.00970143 0.01348840 -0.01723189 -0.00001271 -0.00004184 -0.00009865
103 1 27.469858 16.750246 28.382148 0.00121475 0.03429825 0.01525892 0.00003577 -0.00017297 0.00014994
104 1 16.508449 41.661414 31.635508 0.03312412 -0.00207294 0.02046962 -0.00004351 -0.00052360 0.00003878
105 1 9.031209 12.771359 11.396030 -0.00088471 -0.05121889 -0.02272336 0.00002149 -0.00012738 -0.00005135
106 1 35.636964 35.677175 8.515383 -0.02993459 0.00812456 -0.03906115 -0.00001401 -0.00018337 0.00002027
107 1 39.649772 12.494807 27.313993 -0.01514238 -0.01924586 0.02693334 -0.00004525 -0.00006001 -0.00008417
108 1 10.750560 39.679828 22.083373 0.01765545 -0.02011580 -0.05527425 -0.00001735 0.00008426 0.00002665
109 1 33.503065 16.277084 30.444339 0.01315007 -0.03993095 0.03016361 0.00017783 -0.00013934 0.00006527
110 1 38.046965 22.458562 39.499985 0.03931879 0.01401168 -0.06607961 0.00018847 0.00007017 -0.00003401
111 1 39.173238 11.855424 19.543278 0.00004232 -0.02062147 -0.02294523 0.00005725 0.00007279 0.00004006
112 1 41.141658 17.309809 3.578008 0.04625578 -0.05387908 -0.02684898 0.00002492 -0.00002197 0.00006632
113 1 21.415422 2.004292 9.538126 0.03977194 -0.01554437 0.02598678 8594.35777064 -3286.85672388 3477.35435045
114 1 13.584154 26.490409 8.921769 0.01973038 0.02441555 0.03713055 -0.00026523 0.00001984 -0.00007984
115 1 26.541229 23.795818 40.738182 0.06327854 -0.03201685 0.04535156 0.00012518 0.00003182 0.00005542
116 1 21.531926 4.416637 14.578429 0.01527028 -0.02585163 0.00033979 -0.00004278 0.00021331 0.00008697
117 1 14.793519 28.447475 0.795593 0.00148191 -0.02881921 0.00703764 -0.00011440 0.00015520 0.00007740
118 1 15.542042 17.273877 11.113116 0.03146957 0.02995863 0.05814692 0.00003869 0.00005698 0.00011391
119 1 33.126985 7.262530 33.542673 -0.03507727 -0.01068650 0.00562596 -0.00009931 -0.00004289 -0.00000400
120 1 38.742727 35.988380 22.752417 0.01515428 -0.03891400 -0.11933296 0.00007455 0.00021076 0.00005007
121 1 4.820066 21.564265 19.776255 0.03140892 0.03336384 -0.02866632 0.00014063 0.00011112 0.00013506
122 1 21.759893 36.407517 2.901363 -0.02660949 -0.05919545 -0.02832751 -0.00004771 0.00001176 0.00002258
123 1 4.166423 29.333684 16.122337 0.00729558 -0.02789026 -0.02613678 -0.00000038 -0.00012361 -0.00003486
124 1 0.430794 39.917996 25.963883 -0.00169036 0.00801219 -0.00514575 0.00002105 0.00019103 -0.00005588
125 1 39.866349 35.291803 26.147440 0.03576610 -0.02237633 -0.02170515 -0.00000202 -0.00003651 -0.00015613
126 1 18.349249 9.487222 11.530607 0.03787985 0.02965316 -0.00888902 -0.00002876 -0.00001831 0.00001251
127 1 23.581223 8.977145 7.690723 -0.00968248 0.02784341 0.00896472 -0.00000041 -0.00013022 -0.00023963
128 1 13.701477 12.497648 3.380068 -0.01460504 -0.01890196 -0.01921257 -0.00020406 0.00008412 -0.00001052
129 1 11.314910 20.021925 8.189799 0.01337181 0.01780106 0.03975840 -4093.43070379 -9823.72465985 3820.14808672
130 1 37.560198 27.801238 10.111350 0.00665412 -0.00442607 0.01538141 -10866539.70450074 -46051.89836779 2112666.97516920
131 1 14.093480 15.687789 35.929455 -0.03216918 -0.00873196 -0.06257738 0.00002498 0.00003089 -0.00013702
132 1 18.496043 18.319256 20.186480 0.00601632 0.01480102 -0.02702311 -0.00004201 0.00004289 -0.00014891
133 1 4.877649 9.578864 11.732451 -0.04155682 -0.00932332 0.02135606 0.00001808 -0.00018235 0.00002350
134 1 16.090443 10.375443 10.216211 -0.02442474 -0.02015993 -0.00604262 -46.20653136 -10.75677934 -54.51172573
135 1 0.550233 35.304771 3.848063 0.03040931 -0.03411418 -0.00555789 -0.00002592 0.00013537 0.00000748
136 1 1.864940 14.040501 1.323944 0.01283124 0.01491932 0.04451333 0.00001707 -0.00014004 0.00013233
137 1 18.458405 28.553783 33.640397 0.01367469 -0.02529553 0.04566902 0.00006667 -0.00003235 0.00010452
138 1 18.788952 16.016588 24.755265 -0.03642293 -0.02754888 -0.02287003 0.00017666 0.00002097 0.00003900
139 1 29.349535 5.422338 13.421093 0.03134008 -0.00621102 -0.00278879 -0.00010363 -0.00003885 -0.00004427
140 1 7.006929 37.283952 42.183776 0.02963059 0.02125794 0.02902772 0.00002977 0.00004469 -0.00017301
141 1 40.250699 5.351083 1.584692 -0.00419805 0.00145601 -0.08392639 -0.00005207 -0.00025241 -0.00015163
142 1 8.788075 31.704633 19.520558 -0.02441134 0.06065722 0.03109851 -0.00000527 -0.00017822 0.00014299
143 1 10.540885 9.575848 6.489594 0.02108418 0.02928978 0.01676481 -0.00020272 0.00009361 -0.00005450
144 1 21.620343 17.470899 40.595894 0.01524561 0.02227303 0.01274399 0.00010585 -0.00012815 0.00005526
145 1 4.421087 9.982865 30.735531 0.04501168 -0.00797420 0.01275995 0.00022388 0.00065350 -0.00000139
146 1 23.009130 14.724319 42.042238 -0.00456636 -0.03241943 0.02493994 -0.00011187 0.00016629 0.00008942
147 1 41.877389 34.431196 5.252249 -0.00574387 -0.00066892 -0.02310785 -0.00015819 0.00019899 0.00014234
148 1 27.769602 36.086625 33.353455 -0.02460938 0.02784747 0.02123824 0.00015608 -0.00013893 0.00003042
149 1 0.555616 36.178565 17.251292 -0.00965161 0.03530614 -0.01929436 -0.00017220 -0.00018948 0.00016875
150 1 21.223796 8.285904 31.265230 0.00314402 -0.00533321 -0.00134444 0.00072704 -0.00017209 0.00085100
151 1 33.506698 33.868928 26.706816 -0.01904098 -0.03547656 0.00853523 -0.00008955 -0.00001936 -0.00001651
152 1 21.914217 21.778773 7.944312 -0.06204960 0.00729946 0.02754584 0.00000277 -0.00012794 0.00001462
153 1 9.195722 40.921887 25.656382 0.00531611 0.02945812 -0.04893372 -0.00020052 -0.00005031 0.00000665
154 1 17.955613 23.408416 33.230321 -0.02231163 0.01505793 -0.04934851 -0.00001849 0.00004104 0.00006277
155 1 16.362496 0.096029 36.105517 0.05592468 -0.03034322 0.01212806 0.00000966 0.00005137 0.00010871
156 1 8.127250 22.189478 35.911781 -0.00639362 -0.01803350 0.01060365 0.00007217 -0.00002244 0.00014987
157 1 35.860295 9.566320 17.640820 -0.02843487 0.02193754 0.02216588 -0.00025000 0.00021116 -0.00016880
158 1 36.107088 11.897274 27.121717 0.01720297 0.04752340 0.05558804 0.00003000 -0.00014320 0.00003109
159 1 13.794729 8.378428 35.712870 0.02148728 0.00453985 -0.03318819 0.00028253 -0.00015644 0.00001751
160 1 14.015458 36.044644 20.837471 -0.01663437 0.00037819 0.06124044 0.00016292 -0.00001008 -0.00007657
161 1 41.521601 4.456812 1.598924 -0.01742062 -0.00472489 -0.01172306 0.00009489 -0.00001520 0.00007190
162 1 12.254255 19.276938 6.905198 0.07970865 0.10313892 0.01549405 -11.38384413 9.02843326 15.56814605
163 1 40.302454 2.771670 8.890716 -0.01604305 -0.03750209 -0.00025791 -0.00018748 -0.00005659 -0.00011752
164 1 4.998090 12.609460 13.935704 0.03358090 -0.02193802 0.01106130 16433.62182870 -15162.86834619 9088.06016663
165 1 33.153552 38.957343 38.646984 -0.05490486 -0.01123479 0.08435000 -0.00008777 -0.00009150 0.00013046
166 1 15.239298 1.054657 20.047432 -0.02157257 -0.00821052 -0.00789755 -0.00018669 0.00020159 0.00011610
167 1 33.884042 15.958691 40.184792 -0.01917334 -0.04263219 -0.01004205 0.00000970 0.00004626 -0.00003643
168 1 37.886749 14.401529 9.415359 -0.03544167 0.00930892 -0.00368086 -0.00002970 0.00005543 0.00005495
169 1 29.161721 34.478991 41.047604 0.00360985 0.01166033 -0.02873289 -0.00005454 -0.00009561 0.00000509
170 1 22.770207 2.751080 6.159288 0.04190866 -0.04576607 0.02375869 0.00077594 0.00038887 -0.00194030
171 1 23.620916 31.068835 23.872365 0.02134882 0.03220175 0.04742977 0.00006702 0.00006495 0.00001301
172 1 4.196906 37.609250 11.905459 -0.02850324 0.04523775 0.02107611 -0.00073196 0.00145171 -0.00178085
173 1 3.656674 11.907030 6.907002 -0.05470374 0.03044078 -0.01532398 0.00008363 -0.00002760 0.00010541
174 1 5.327958 0.794146 0.196068 0.05922439 -0.04053352 -0.04435432 -0.00002781 0.00006059 -0.00000452
175 1 38.794145 34.741985 27.571468 -0.05993915 -0.00022050 -0.03289295 0.00012643 0.00008338 0.00006899
176 1 27.886039 28.985127 3.341693 0.03238785 0.02447292 -0.04368601 -0.00009461 0.00004155 -0.00002944
177 1 37.194014 32.269745 15.630684 0.02060098 0.00942308 -0.03470694 -0.00001491 0.00009900 -0.00007429
178 1 21.523184 18.387550 37.089093 -0.00720082 0.00256278 0.04855098 -0.00001255 -0.00006056 0.00009413
179 1 32.784524 15.223884 24.286252 0.00906363 0.03270108 0.05507607 -0.00007150 -0.00004133 -0.00005910
180 1 24.089213 16.295626 7.361030 0.03482895 0.01795096 0.00889498 -0.00007757 0.00013530 0.00004996
181 1 23.222192 20.671300 31.024375 0.02253294 -0.07795874 0.00522750 -0.24730518 0.31965193 -0.48686269
182 1 1.220003 18.923831 19.835737 0.05137528 -0.03426812 0.01233773 -0.00010417 -0.00003002 -0.00005447
183 1 26.478741 3.361329 31.134824 -0.02318053 0.01390111 -0.04939459 -0.00001360 0.00003964 0.00004137
184 1 30.530762 9.518089 4.277102 -0.01260984 0.00841627 -0.05125659 -2399.58336743 1485.15151712 -684.06106484
185 1 14.982951 7.418380 21.502488 -0.00336253 -0.00703417 0.01046959 0.00001825 -0.00018926 0.00000551
186 1 17.045685 5.728502 37.248550 0.04064777 0.01834269 0.03776885 -0.00005615 0.00003353 0.00006753
187 1 33.194816 14.637554 19.170229 0.04680415 0.01899338 -0.05739921 -14.50963705 10.51553003 -11.21086960
188 1 41.582031 16.144113 28.812444 0.04151773 0.01437784 0.02005750 0.00000570 0.00008037 0.00013170
189 1 3.046305 31.334860 8.498549 0.05199379 0.01002775 -0.00697021 0.00021602 0.00017680 -0.00011735
190 1 13.813654 28.674731 39.365652 0.00348874 -0.02467512 -0.00950082 -0.00000792 0.00011727 0.00002760
191 1 34.522062 32.641756 40.158510 0.00866917 0.00982593 0.03446606 0.00012011 -0.00008698 0.00005646
192 1 7.816010 21.944678 41.742102 -0.03290196 0.02119559 -0.00357219 0.00001594 -0.00018479 -0.00010568
193 1 24.644854 11.272578 16.991545 0.00176318 -0.02467095 -0.01311862 0.00004234 0.00002341 -0.00003170
194 1 14.354509 36.460068 13.841104 -0.01818489 -0.00684721 -0.01460231 0.00006067 -0.00000931 -0.00009621
195 1 26.648034 13.009496 15.858120 0.01589341 0.02932998 0.00955868 43.95375507 1388.31505549 578.60869326
196 1 38.074694 30.861682 32.085631 -0.00299467 -0.02266518 -0.03001446 -0.00009616 0.00002953 0.00005887
197 1 31.616190 17.394912 29.321651 0.05460303 0.03888420 0.00449664 -0.00015396 -0.00020388 -0.00015047
198 1 12.997278 26.530524 34.948204 0.00897597 -0.01526067 -0.02225011 -0.00017642 -0.00008065 -0.00004536
199 1 11.158301 33.117318 4.581038 0.00731509 -0.02969730 0.00554422 -0.00000065 0.00000630 -0.00011528
200 1 10.471505 22.241152 28.258142 0.01231662 0.00896151 0.00465294 -0.00003673 0.00009153 -0.00009645
201 1 17.014258 12.429968 20.573294 -0.01731564 -0.00573430 0.00109721 0.00002097 0.00008622 -0.00009163
202 1 35.892608 0.491432 27.817060 -0.00275977 -0.01084814 0.00273117 -0.00002453 -0.00007094 -0.00007731
203 1 21.136795 8.039400 32.300583 -0.01385584 0.01141550 -0.03973278 0.00033688 -0.00009281 0.00032190
204 1 6.147946 25.995022 42.275042 0.02510759 0.01754453 0.02577895 0.00014723 -0.00002363 0.00007657
205 1 7.218273 6.873820 17.933645 0.05850723 -0.08075536 -0.03843705 0.00014709 0.00000789 -0.00003940
206 1 3.852453 41.313155 33.915028 0.01158769 0.04389297 -0.01178830 -0.00009736 0.00018570 -0.00010862
207 1 14.835793 32.782765 18.186101 0.06664671 -0.01555450 0.03151553 -0.00001114 -0.00001365 -0.00006016
208 1 16.372296 34.029273 16.743629 0.02478517 -0.02207231 0.01305880 -0.00005746 0.00000905 -0.00002811
209 1 16.737200 3.867225 22.140055 0.01282459 -0.01763699 0.03804875 -0.00012661 -0.00003521 0.00016568
210 1 6.176914 9.358851 16.086373 0.03401883 0.01569042 0.01474200 -2.65435482 -1.53191322 -0.38948372
211 1 2.353876 26.802476 33.324112 -0.05104361 -0.00093585 0.00752354 5953.93493946 4812.40136290 -1676.35883959
212 1 38.366723 40.597006 6.169943 -0.01775828 -0.01982202 -0.02376324 0.00007845 0.00002694 -0.00012823
213 1 10.610168 29.479514 8.127925 -0.01402066 0.06588943 0.01265686 0.00007393 0.00001114 0.00007571
214 1 11.850368 22.174074 22.268721 -0.00116121 -0.02933878 -0.03108953 -0.00001179 -0.00012355 0.00010903
215 1 33.175044 12.906238 28.713479 0.02551715 0.01887798 -0.03307710 0.00007263 0.00010144 0.00002203
216 1 34.095822 22.912682 30.138172 -0.00484088 0.00869339 -0.02796676 2.07568127 0.03454268 -0.76361688
217 1 32.364794 36.630237 6.452605 -0.01528578 -0.02603296 -0.03797951 0.00005887 -0.00013418 0.00015136
218 1 9.620610 24.203226 28.308916 0.02432815 0.04518226 0.01134002 0.00001419 0.00008964 0.00004713
219 1 16.526888 1.257797 34.773453 0.04019192 0.02123929 0.00477505 0.00003993 -0.00012500 0.00020350
220 1 29.816824 32.671663 38.599218 0.04367685 -0.01402382 -0.03574231 -0.00007422 0.00004317 0.00002925
221 1 41.806895 29.550422 4.537557 -0.00632671 -0.03090853 0.06216615 0.00004682 0.00002794 -0.00007980
222 1 31.472634 4.987110 33.871104 0.01069214 -0.03073269 -0.00627974 -0.00003356 -0.00007052 0.00013170
223 1 3.800080 7.977721 30.732349 -0.03007791 0.01240304 0.00434713 -0.02424132 -0.03861786 0.00693454
224 1 3.474072 30.706753 8.336096 -0.01405845 -0.00467908 0.02084682 0.00006380 0.00013128 0.00004154
225 1 3.294425 37.799499 37.679094 -0.00902537 -0.04990580 0.04404309 -0.00018267 -0.00000908 0.00002884
226 1 4.951656 21.283790 34.751584 0.05682521 0.00823231 0.04748871 -0.00011291 -0.00007173 0.00002339
227 1 19.549450 36.924407 1.932458 0.02357526 -0.04219848 -0.03945979 0.00002307 -0.00013515 0.00008468
228 1 28.915019 26.530045 36.670017 -0.01084643 -0.01202266 0.04960387 0.00003749 -0.00003185 -0.00002658
229 1 17.144647 18.188595 6.569164 0.03093437 -0.02031031 0.02019507 0.00020367 -0.00000705 0.00010906
230 1 28.039680 31.131407 42.201873 -0.03075472 -0.02284563 0.02731769 0.00000736 0.00017166 0.00015384
231 1 41.945885 37.045888 19.195256 0.02488491 -0.01914396 -0.01811646 0.00015702 0.00001624 0.00003469
232 1 15.777380 32.608817 20.716709 0.04744559 0.00525867 -0.00303454 0.00002921 -0.00004015 0.00003595
233 1 32.317736 29.116969 35.069288 -0.02498237 0.03062077 0.00361643 -0.00005811 -0.00000099 -0.00008796
234 1 11.822419 5.783791 19.024409 0.01121479 0.03038956 -0.00941332 0.00013041 -0.00010552 0.00004147
235 1 25.056825 21.189293 33.355502 0.02009277 -0.00198244 -0.01541131 0.00031377 -0.00006150 0.00021096
236 1 6.058876 8.961702 37.011039 0.03743577 0.00675168 -0.00432785 -0.00011000 0.00026221 0.00013376
237 1 27.524235 40.298944 41.308122 0.03523482 0.00865551 0.02763797 -0.00005565 0.00005750 -0.00002492
238 1 24.762423 25.469800 0.306927 0.02201740 -0.05670539 -0.00270472 -0.00007171 0.00013691 0.00003063
239 1 25.064900 0.903655 30.809844 0.00916008 0.03810108 -0.01530251 0.00003102 0.00003018 0.00021788
240 1 37.748211 4.355412 36.625669 0.04696235 -0.02634081 -0.01675283 0.00009316 0.00008643 -0.00007184
241 1 5.053538 20.378927 18.184421 -0.03794133 0.02090411 0.02943398 0.00002336 -0.00008801 0.00014010
242 1 9.117430 39.470020 11.180524 -0.00883735 0.04612607 -0.03972348 0.00008656 -0.00000196 -0.00002275
243 1 28.185849 35.674028 26.452905 -0.03767353 0.05412370 -0.03498709 -0.00000394 0.00011059 -0.00004363
244 1 30.713022 4.939143 14.195901 -0.02135967 -0.00724293 -0.00171438 -0.00011582 -0.00004866 0.00019950
245 1 17.773629 17.717620 1.680775 0.03126885 -0.05696347 -0.02677061 -0.00010473 -0.00007378 0.00008983
246 1 30.303046 38.329513 25.216563 0.00371505 -0.03453844 0.04874453 0.00007147 -0.00015568 0.00001769
247 1 2.327800 6.656862 38.054599 0.00661838 0.00147634 -0.01693256 0.00004674 -0.00019209 -0.00007541
248 1 24.722569 9.364866 11.191085 -0.02591231 -0.04962883 -0.00922045 -0.00005030 -0.00017183 0.00001256
249 1 22.763830 18.197916 0.462713 0.00431755 -0.00399511 -0.03902180 -0.00015541 -0.00007089 0.00002680
250 1 13.462980 31.922564 0.173797 0.04649408 -0.04191154 0.02972817 -128.64204487 226.51803098 -90.38397420
251 1 41.416675 32.853884 9.880246 -0.01636208 -0.02601611 0.03315767 -0.00008133 0.00007928 -0.00005919
252 1 32.602378 22.630252 40.632165 0.03684273 0.06882002 -0.04142981 0.00005612 0.00008473 0.00006695
253 1 4.177913 35.511495 37.803056 0.09246657 -0.00338211 0.03527167 -0.00001166 0.00003126 -0.00003674
254 1 34.004706 31.958610 22.752459 -0.01482013 0.01124949 -0.05151980 -0.00004802 -0.00014156 0.00012374
255 1 40.536045 32.361991 31.101875 -0.03976823 0.07995937 0.00432471 0.41919470 -1.31395789 0.24614968
256 1 31.520749 41.005785 37.659536 0.01192439 0.01340828 -0.03123650 0.00001753 -0.00017690 -0.00006102
257 1 35.174038 5.599930 41.215913 -0.01742502 0.01269101 -0.07426188 -0.00012009 -0.00006106 0.00005944
258 1 13.363798 38.637066 20.138271 -0.00537739 0.03366069 -0.01079925 -5481064.30208287 3060997.29321441 4834166.75665063
259 1 29.447789 30.035446 19.200516 -0.05245575 -0.00390815 0.05061048 -0.02042803 -0.02423867 -0.05125834
260 1 30.206489 12.446550 41.041906 0.03875567 0.00721785 -0.07726463 0.00000138 -0.00002022 -0.00002741
261 1 7.958743 2.232831 33.669360 0.03030728 -0.05164555 0.04218114 -0.00010478 -0.00000630 -0.00002258
262 1 29.187766 20.003846 35.613276 0.03769629 -0.01596073 0.04411719 -6.03294730 1.81242520 17.94357027
263 1 37.462460 20.173014 31.620554 -0.02370196 -0.04837691 0.00958408 0.00061635 -0.00141249 0.00135137
264 1 29.434308 14.967896 1.107371 0.04073831 -0.01841063 0.05228424 0.00004301 -0.00016094 -0.00019182
265 1 17.656850 8.575235 14.611175 0.00637152 -0.01774665 -0.00667725 0.00017959 -0.00012871 0.00031322
266 1 3.640836 32.117171 6.953601 0.03207080 0.02825436 -0.02298394 -3985.47374442 2641.77249133 -2156.78750675
267 1 9.038933 13.714371 23.797507 -0.01166974 -0.05083127 0.00093337 -0.00008395 -0.00027743 -0.00003424
268 1 25.892542 23.636443 3.768059 -0.04058535 0.05782233 0.02424977 0.00001796 -0.00002984 0.00004283
269 1 0.363732 41.271591 0.536102 -0.00938401 0.01750315 0.04715147 0.00014846 0.00014153 -0.00011871
270 1 29.644354 7.742492 3.436762 0.04916448 0.05727839 -0.04843688 0.56948806 1.14098051 0.54010039
271 1 14.276982 26.902568 29.565046 0.01807310 0.02147739 -0.03891836 0.00002235 -0.00000384 0.00003023
272 1 31.464200 11.701980 35.042881 0.01633665 -0.04247143 -0.03807776 18.25065008 -8.86959286 7.80600227
273 1 38.773986 4.664844 14.197022 -0.00377296 0.02649594 -0.01344957 0.00003668 -0.00013037 0.00007304
274 1 4.402141 27.134832 28.316758 -0.02722296 -0.01212835 0.08746488 -0.00000637 -0.00005063 -0.00025123
275 1 5.167655 2.440637 27.506863 0.01534553 0.00921289 -0.00337729 0.00007531 -0.00019322 -0.00004430
276 1 19.305678 27.959950 11.100328 -0.02992011 -0.01385764 0.00374007 0.00019799 -0.00002359 -0.00006698
277 1 35.370779 11.499344 7.009566 -0.02583080 -0.00885023 -0.01926763 -0.00017520 0.00055851 -0.00052129
278 1 40.430959 39.372549 6.922145 -0.02224827 0.04144502 0.01603782 0.00007519 -0.00000946 -0.00010297
279 1 6.736130 21.022827 42.300934 0.00086298 0.01368774 -0.01384808 -0.00003030 0.00009919 0.00004474
280 1 33.101666 4.135885 25.874956 0.01371504 0.00057034 0.03596504 -0.00014308 -0.00016519 0.00003529
281 1 13.890646 29.938070 13.048425 0.00109313 0.03040574 -0.06319648 -0.39527866 -4.94022488 -4.90486101
282 1 6.758593 9.409738 4.870092 0.03606655 -0.02143283 0.06460616 -0.00008071 0.00009973 -0.00015865
283 1 29.603596 29.308685 19.014712 0.00151059 -0.01509303 0.02427936 -0.17238171 -0.05723092 -0.34035448
284 1 18.253212 36.032404 14.955639 -0.05563644 -0.02369525 -0.06489239 10880.42993093 12049.00624401 -3403.39562196
285 1 29.406453 10.477536 15.271347 -0.00374357 -0.00858510 -0.01700058 0.00147758 -0.00142162 -0.00044448