ITEM: TIMESTEP
0
ITEM: NUMBER OF ATOMS
4459
ITEM: BOX BOUNDS pp pp pp
0.0 38.792592
0.0 38.792592
0.0 38.792592
ITEM: ATOMS id type x y z vx vy vz fx fy fz
1 1 22.237596 15.214690 33.062458 -0.06617568 -0.00061717 0.01422376 -0.00002145 0.00010502 0.00005507
2 1 30.438188 37.785565 25.384651 -0.01563508 -0.03614173 -0.03745733 -0.00010043 -0.00016741 -0.00003625
3 1 18.494674 26.051719 6.638601 -0.00928897 -0.01232798 -0.02021507 -0.00005262 -0.00003268 0.00014592
4 1 3.521419 22.499902 29.300076 -0.02850338 0.04962407 -0.02543908 -0.00002882 0.00008781 -0.00005120
5 1 12.324664 0.943157 8.590799 -0.03918024 -0.04501112 -0.00981303 0.00004864 0.00005133 -0.00017932
6 1 38.357398 6.181857 34.856562 0.03075735 0.03341892 -0.00094062 0.00011906 0.00006309 0.00005212
7 1 14.200095 13.573715 12.305862 0.01406954 -0.02187088 0.00702234 -0.00012296 -0.00013044 0.00002964
8 1 3.108114 31.033989 18.871281 -0.01920497 -0.02048877 -0.00303939 -0.00003191 0.00013438 0.00001635
9 1 14.632894 29.078631 20.210152 0.03328070 -0.01347297 0.04396945 0.00019762 -0.00003901 -0.00007790
10 1 5.401443 6.330973 10.937362 -0.01912182 -0.01999978 0.00634082 0.00013752 0.00003440 0.00015791
11 1 37.809763 29.568206 25.164171 0.02331292 0.02486220 0.05446887 0.00021119 0.00007615 0.00008693
12 1 26.802409 8.144878 35.723040 0.00573539 -0.03349325 0.02565707 -0.00010026 -0.00009569 0.00008549
13 1 22.461864 20.436993 0.008412 0.02665944 -0.01364476 -0.03082618 0.00009665 -0.00004721 -0.00003051
14 1 35.826621 14.013853 28.132906 0.02078940 -0.01585177 -0.01176980 -0.00001237 0.00007253 -0.00002495
15 1 3.355962 24.247030 24.601592 -0.03451275 -0.00108095 0.01996905 0.00012962 -0.00012544 0.00004770
16 1 14.270955 19.435729 26.570771 -0.02568525 0.01875866 0.00009938 -0.00006299 0.00002759 0.00009459
17 1 1.866766 14.099451 34.488535 0.05408475 -0.01813082 -0.00913658 0.00008790 0.00012390 0.00003489
18 1 0.339540 16.341817 7.730147 -0.01300298 0.00252881 -0.00182335 0.00012367 0.00016559 0.00009638
19 1 32.763799 13.076816 10.744470 0.02227623 0.04627873 -0.01788209 0.00001058 0.00013490 0.00013775
20 1 18.215752 4.796676 7.744406 0.00582499 -0.01178535 0.01023446 0.00002162 -0.00014142 -0.00000875
21 1 2.584379 15.379746 36.031311 -0.00553735 -0.02689361 -0.00395633 -0.00010960 0.00011005 -0.00003408
22 1 13.787960 8.931095 24.669160 0.00736082 -0.00549377 0.01351706 -0.00008406 -0.00010343 -0.00001906
23 1 0.432143 2.444306 25.086842 0.00160037 0.04264103 -0.01134947 0.00012714 -0.00000951 -0.00008183
24 1 21.113645 25.451432 23.776870 -0.01624530 -0.05759820 -0.00297972 0.00003136 0.00010060 -0.00009266
25 1 6.612749 25.306559 19.787423 0.00302856 -0.03065704 0.02260004 -0.00007509 0.00011513 -0.00007368
26 1 29.047901 33.822813 26.158467 0.00608243 0.01686760 -0.01337454 -0.00002223 0.00013015 0.00006354
27 1 22.231549 18.790489 9.507573 -0.01053537 0.00550592 0.00245138 -0.00007179 -0.00002372 0.00008895
28 1 22.259624 4.088247 20.051579 0.01762508 -0.00819006 -0.00571796 -0.00002427 -0.00006456 0.00006976
29 1 19.652881 32.991975 14.332107 0.02450023 0.00667243 -0.01485953 -0.00012698 -0.00007433 0.00011515
30 1 15.856653 32.130039 20.786936 0.02189862 0.01384874 -0.01238770 0.00007950 0.00006335 -0.00003716
31 1 14.952755 19.181689 9.051380 -0.00536512 0.00265686 -0.00458911 -0.00003173 0.00004141 0.00004721
32 1 20.959511 2.040957 1.838997 -0.00356839 0.01504931 -0.00519109 -0.00007682 0.00010557 0.00009999
33 1 26.685725 20.880428 11.279191 -0.02467485 0.00285557 0.00885708 0.00006212 -0.00000720 0.00002179
34 1 25.652571 32.322719 34.096240 -0.03145256 0.01670129 -0.00663843 -0.00002451 -0.00020975 -0.00000820
35 1 14.208215 29.458946 8.452373 0.03949667 0.00910513 0.00088459 0.00001390 0.00010801 0.00009286
36 1 30.804899 19.265137 19.739436 0.03305509 -0.03630781 0.05078431 -0.00000225 -0.00006381 -0.00019413
37 1 36.716325 36.601165 9.105160 -0.01706670 -0.00603646 -0.05417401 0.00008654 0.00004005 0.00003809
38 1 28.476448 14.350020 21.492596 0.04031481 0.03075896 -0.01452156 -390181.63087271 56578.61760683 239097.95930975
39 1 7.778268 17.925975 11.094678 0.05282438 0.04071252 0.03858621 -0.00001399 0.00010090 0.00013168
40 1 36.989610 18.118436 13.646952 -0.03789157 0.00504265 -0.04246378 -0.00009398 -0.00012483 0.00006911
41 1 13.605266 18.699450 17.288090 0.03448383 0.03664468 -0.01511315 0.00013471 -0.00000707 -0.00001351
42 1 21.961506 32.778783 22.145349 -0.00691240 0.00374333 -0.02727071 -0.00001516 0.00012644 -0.00000142
43 1 3.283702 5.705751 16.155375 -0.02129502 -0.01103208 -0.02143432 -0.00009455 0.00002430 -0.00004795
44 1 28.903243 15.297004 8.188505 -0.03544324 0.01947037 0.06463201 -0.00000448 -0.00013053 0.00010756
45 1 2.556186 36.207456 34.189129 0.01745213 0.05883001 -0.00165322 -0.00004633 -0.00015479 0.00004337
46 1 10.662979 18.844985 26.511508 -0.00794773 0.01127010 -0.01204840 0.00002471 -0.00008661 0.00019260
47 1 28.122898 18.407430 15.163652 0.00349187 0.00830798 0.04328416 0.00006825 -0.00001898 0.00003129
48 1 4.375051 34.113282 36.027940 0.01064702 0.02114765 -0.00785058 0.00013162 -0.00010049 -0.00009505
49 1 33.181205 4.898781 3.448759 0.02999190 -0.02113705 -0.02008739 -4787337.08324382 11023560.48722078 -20845595.68669160
50 1 29.195677 6.866684 19.091996 0.00386306 -0.01377373 -0.01054870 0.00004277 -0.00001184 0.00015675
51 1 16.484741 35.449591 31.498247 -0.04245783 -0.03638665 -0.00123060 0.00010624 -0.00015215 0.00005669
52 1 11.252088 2.598327 19.481149 0.01098465 -0.03534409 -0.02725557 -0.00018499 -0.00001375 -0.00013159
53 1 1.645712 15.295195 38.302734 0.00576245 -0.01384653 -0.01191724 0.00004875 -0.00003018 0.00002003
54 1 12.684267 23.678948 1.076943 0.09176679 -0.02057355 0.03318557 0.00005362 0.00004285 0.00013141
55 1 29.338671 24.030128 8.646402 0.04074962 0.04578345 0.00374167 0.00000475 -0.00012719 0.00006703
56 1 25.058026 8.821708 4.814855 -0.00922799 -0.05962643 -0.02297831 -569.69560579 1072.57344588 -757.50279215
57 1 28.933104 32.799636 13.987307 -0.01214678 0.04238187 -0.03426190 -0.00001814 0.00008412 -0.00009251
58 1 16.034109 32.179480 22.724246 -0.02918875 -0.00854983 0.02824550 -0.00012512 -0.00005933 0.00006328
59 1 18.464765 14.723653 7.230562 -0.01367338 0.03545881 -0.03188945 0.00018592 -0.00013007 0.00013416
60 1 25.805075 20.939759 16.199719 0.02543689 -0.02070061 0.02251859 127889.11241499 -43077.19776112 26546.20592931
61 1 28.981524 26.406807 32.158868 0.02825896 -0.02767154 -0.01901176 -0.00001715 -0.00007047 -0.00010585
62 1 24.816731 31.001134 34.569273 0.04933042 -0.00318625 0.01512901 0.00005653 -0.00014786 -0.00008499
63 1 19.944737 37.009472 17.012739 -0.04401494 0.01056725 -0.05336282 0.00000546 -0.00000456 0.00007404
64 1 27.277201 35.337698 20.663240 -0.00327326 -0.03435968 0.01194874 0.00009705 0.00004469 0.00022197
65 1 33.690702 26.418732 3.095895 -0.00515561 -0.05137028 -0.02705470 90.00348807 -116.68709914 -35.06810454
66 1 6.499369 34.361308 5.242036 -0.03083402 0.00216536 -0.03871608 -0.00000047 0.00002747 0.00007026
67 1 15.615233 32.335730 26.946792 -0.02922476 -0.02355504 -0.00501376 -0.00011144 0.00014668 0.00012703
68 1 24.539429 9.524803 20.572351 -0.04528724 0.04188268 0.03443462 0.00003963 -0.00012611 -0.00003408
69 1 14.421235 28.795164 26.364058 -0.01984104 -0.00255821 -0.01744190 0.00005256 -0.00014374 0.00011762
70 1 36.390079 33.755840 35.383033 0.01913245 0.07151743 -0.00387535 0.00000362 -0.00013679 -0.00005773
71 1 1.425754 3.458971 9.067340 -0.05271611 0.02642555 0.03236334 0.00001838 -0.00007649 -0.00000607
72 1 24.643973 19.620047 28.367486 0.00672624 0.03236380 0.04565045 -0.00003412 0.00003880 0.00001655
73 1 12.882307 9.398400 16.869750 0.02925283 0.04034626 -0.02368072 -3.41063406 -1.18609486 -3.14121398
74 1 35.588393 9.919753 24.169764 0.00048730 0.00758576 -0.01049106 0.00009962 0.00006134 -0.00008075
75 1 31.487474 21.826225 37.824014 0.01194902 0.01244043 0.00168389 -0.00007932 -0.00011731 0.00005548
76 1 9.146160 9.281404 16.234970 0.06192484 -0.00394637 -0.00094651 -1662.47827255 -458.74588486 968.54142650
77 1 11.018215 36.801615 17.936203 0.06792934 0.03357356 0.04716505 -0.00001034 -0.00009775 0.00004749
78 1 27.294907 11.585010 2.061961 0.03238599 -0.01547481 0.00865305 0.00042764 0.00055951 -0.00054126
79 1 26.077706 2.846164 34.499652 -0.01021058 0.01812108 -0.01800983 -6321.09060798 11002.46751442 -8690.00616110
80 1 33.070543 6.078721 9.558611 0.00179055 0.02384764 -0.00237296 0.00005762 0.00016535 0.00000091
81 1 9.059143 25.944998 5.903109 -0.01015583 -0.02467655 -0.01143264 0.00002038 0.00000088 -0.00007596
82 1 19.276697 38.430557 36.398237 0.00745610 0.00516524 0.10122398 0.00005547 -0.00005523 0.00014142
83 1 25.044555 0.685492 37.797504 0.00234770 -0.00790979 0.06002926 -0.00027922 -0.00087936 0.00108275
84 1 4.924535 11.095022 12.615756 -0.03768590 0.03281096 -0.00180319 -0.00000043 0.00017663 -0.00019818
85 1 16.960953 29.588509 38.446465 -0.02310799 -0.00878748 -0.01563045 -0.00007225 -0.00015110 -0.00013469
86 1 26.172507 8.346026 36.147220 -0.00314086 0.04768674 -0.01353694 0.00004076 0.00006511 0.00000479
87 1 32.255165 36.934716 24.268413 -0.07862379 0.00573579 0.02727104 -0.00006775 0.00009532 0.00000470
88 1 25.245862 13.367477 19.036926 0.02093923 0.00501424 -0.00823390 -0.00112861 -0.00030002 -0.00081908
89 1 34.993682 12.242197 26.362023 -0.01139550 -0.00472669 -0.00834831 -0.00007259 -0.00002031 -0.00008658
90 1 14.190072 12.878537 24.476449 -0.01325905 0.01399236 0.01181602 -8249.78541629 -6375.86112508 3760.19565312
91 1 7.047824 15.964844 33.467038 0.06824043 0.04185240 -0.01882328 -0.00003568 0.00006429 0.00021794
92 1 4.147037 38.782306 36.109042 0.03187418 0.01073797 -0.03760295 -0.00003123 0.00000431 -0.00010209
93 1 2.472546 21.291414 37.239607 0.00939133 0.01655997 -0.00187269 -0.00001207 -0.00003103 -0.00000733
94 1 8.087153 20.873605 37.986927 -0.03231262 -0.04621581 0.03159159 -0.00006319 0.00008881 -0.00013018
95 1 15.428789 18.321640 0.133601 -0.01819634 -0.01021929 -0.01254386 -0.00005178 0.00018506 0.00000248
96 1 35.323434 20.445932 9.322648 -0.02178545 -0.00348695 0.04074544 0.00001913 0.00000127 0.00000016
97 1 23.901462 20.460666 6.992981 0.03799334 -0.05696663 0.03245442 -0.00000009 0.00016237 0.00006761
98 1 18.289032 26.387162 20.869034 -0.05597728 -0.02045290 0.02041923 267.63543433 713.41742977 359.05096515
99 1 2.882214 8.423048 30.847118 0.00031582 -0.00066233 -0.03226031 -0.00009363 0.00003316 -0.00007466
100 1 22.049698 11.726066 17.221866 -0.03296899 -0.03134908 0.00585245 -0.00026509 0.00016372 0.00001457
101 1 22.252061 16.060451 31.644726 -0.00116730 -0.02331087 -0.06042054 -0.00001903 -0.00017904 -0.00008139
102 1 10.991119 2.576817 29.625932 -0.02851068 -0.02306331 0.00363815 -0.00010474 0.00010581 0.00012308
103 1 26.534210 26.300918 1.617770 -0.00490320 0.01443042 0.01946161 -0.00010914 -0.00001649 -0.00009979
104 1 36.866042 3.978205 38.224163 0.02737634 0.01260427 -0.00877710 0.00012308 -0.00002299 -0.00008149
105 1 16.272616 3.254459 30.315534 -0.00893027 -0.00960183 -0.02319129 -0.00016148 -0.00003118 0.00002527
106 1 36.334132 25.267092 4.713245 -0.03781611 -0.02279361 -0.02259945 0.00166822 -0.00067684 0.00108772
107 1 20.951443 33.375619 33.674800 -0.04062097 0.03654415 -0.02317973 -0.00003924 -0.00001664 -0.00003435
108 1 30.178756 37.692238 7.254523 -0.02657370 0.00175643 -0.02031425 -0.00007314 0.00011421 0.00015564
109 1 1.056316 13.225851 14.714883 0.02642503 -0.00179889 -0.03788646 0.00010732 0.00005152 -0.00002974
110 1 11.533280 18.909005 20.305052 -0.02162148 0.00211536 0.03934697 -0.00004806 0.00004003 -0.00000605
111 1 0.196675 29.435750 29.069630 0.01488837 0.00165961 -0.04636861 0.00011789 -0.00006174 -0.00005090
112 1 16.216272 28.361904 6.770894 0.00800516 0.03692397 0.01213714 1616942.96707606 484770.18360565 1095955.29659820
113 1 13.949856 4.967899 37.378261 0.02218802 -0.00501598 0.02766991 0.00010522 -0.00001830 0.00015163
114 1 26.599368 21.561572 8.846654 0.02800821 0.01257642 0.02903337 0.00008536 -0.00018525 0.00012225
115 1 33.447508 11.964377 4.989364 0.04154892 -0.00050562 0.01455229 -0.00001295 0.00010256 0.00004895
116 1 37.089415 12.650308 33.531111 -0.06087056 -0.00459477 -0.02585449 0.00000398 0.00008049 0.00003615
117 1 29.097783 26.894671 10.310234 -0.03683255 -0.04322461 -0.01955135 9.07320725 -73.27204503 139.58687779
118 1 11.568830 3.480732 8.206464 0.01092432 0.01505014 -0.00051103 0.00009422 0.00007469 0.00004634
119 1 7.734558 33.223048 14.017942 -0.00252297 -0.04164838 0.04832957 -0.29989140 0.01157719 -0.28092834
120 1 13.624389 35.102835 19.461031 -0.01569440 -0.00845547 0.05818255 -0.00005968 0.00013794 0.00002168
121 1 0.625377 5.440880 21.941952 0.00283381 0.01330219 -0.01723695 0.00002439 0.00002214 0.00004833
122 1 32.057179 25.378746 32.934706 0.03698319 -0.02147705 0.03163087 -0.00007818 0.00000875 -0.00007380
123 1 26.027401 12.219620 14.881427 0.02383032 -0.02907432 -0.06384437 0.00001719 -0.00005793 -0.00004670
124 1 16.325654 33.477034 12.456640 0.02888025 0.03061316 0.03299816 -0.00000425 -0.00018072 -0.00003527
125 1 0.821689 22.273285 20.837637 0.03307365 0.00575014 -0.00335626 -0.00003806 -0.00001915 0.00013576
126 1 18.521471 15.733753 33.491392 -0.02332266 -0.00355303 0.02251302 59548.81978119 46529.04764997 -1730.12271514
127 1 38.362621 22.318128 7.059820 0.03550395 -0.00027640 0.04393228 0.00012604 -0.00003400 0.00011213
128 1 32.602865 19.092371 0.258784 0.00394890 0.03793312 0.06026971 0.00003044 -0.00014104 -0.00007485
129 1 30.352706 6.656827 27.545381 -0.00864519 -0.01584107 -0.00260423 -0.00007370 0.00011111 0.00004276
130 1 18.336676 17.750862 22.373292 0.02454849 -0.03868028 0.01319542 0.00005435 0.00001286 -0.00011033
131 1 34.948465 18.740232 36.219445 -0.00601142 0.01366606 -0.02092618 -0.00019740 0.00010649 0.00004058
132 1 24.630121 20.820468 13.046683 -0.02351579 -0.01176659 -0.03495691 -0.00081375 0.00001364 -0.00245022
133 1 35.988476 7.618912 32.247723 -0.05199955 0.02309923 0.04446790 0.00000655 -0.00004827 -0.00009590
134 1 24.815206 34.409924 25.305328 -0.02444550 0.04066195 0.00072197 0.00003518 -0.00002801 -0.00018905
135 1 11.086308 6.659448 25.067025 0.02577345 0.02282036 -0.01308141 -0.00005251 -0.00002186 0.00000825
136 1 21.638235 26.101154 9.843827 -0.02984325 -0.01909995 0.02166574 -0.00007033 -0.00011306 0.00011816
137 1 9.989916 19.911985 4.253770 0.03013033 -0.00901937 -0.00196554 0.00010475 -0.00002293 0.00005741
138 1 3.089148 35.979904 0.655460 -0.03303796 -0.02112432 -0.01062978 -0.00002393 -0.00002212 0.00002520
139 1 17.702802 14.443887 26.359467 0.04290619 0.04418804 0.00897996 34322.17383497 -751.93907612 -26871.58048605
140 1 9.842153 7.711851 3.460468 0.05343390 -0.00999911 0.03519669 -11146688.19877329 -145354.02672552 3624661.02845530
141 1 31.109973 28.015982 37.739282 -0.00630012 -0.02394233 -0.03616324 26161.25513186 -46013.05740458 -107243.63625278
142 1 1.104015 28.026173 28.734842 0.04462262 -0.01418927 0.01749557 0.00003472 -0.00002103 0.00013115
143 1 15.032723 32.869009 13.086021 -0.02095953 -0.01014328 -0.00663972 0.00030784 -0.00003526 0.00015937
144 1 10.409395 32.788657 13.854234 -0.02030654 -0.02081057 -0.02169076 -0.04436459 0.00724316 0.00259564
145 1 10.634194 1.158473 0.651360 -0.01811712 -0.01511809 0.02354341 0.00007986 -0.00021962 0.00007817
146 1 10.658456 30.919378 21.558148 -0.02757596 -0.00906587 -0.02212568 0.00000606 0.00002709 -0.00010056
147 1 10.281438 26.200178 11.322575 -0.00186007 0.04237193 -0.02688874 -0.00001914 0.00002441 -0.00011696
148 1 9.588588 22.251057 10.301176 -0.03041753 -0.00805805 -0.01521870 0.00004583 -0.00001071 -0.00006454
149 1 21.886976 31.538780 33.170642 -0.03356479 0.03731510 0.02729652 -0.00008623 0.00011364 -0.00005152
150 1 2.096607 8.034400 33.817801 0.01964669 -0.01000587 -0.06293981 0.00002308 0.00004308 -0.00014949
151 1 3.206857 14.623126 15.783721 -0.00467212 -0.02602796 0.02457429 0.00002803 -0.00009416 0.00010204
152 1 11.787726 1.544271 28.636416 0.00342565 0.03347114 0.01690903 0.00012054 -0.00016636 0.00002849
153 1 37.821620 18.406716 31.087897 0.00011109 0.01262256 -0.05258144 -0.00017199 0.00019906 0.00004178
154 1 35.462277 34.095361 32.063964 -0.06281709 -0.03163870 0.00593883 -0.00001534 -0.00008583 -0.00002698
155 1 16.455474 34.854502 36.952472 0.00647454 0.02513552 0.00556302 -0.00023063 0.00008111 -0.00018933
156 1 15.935363 1.030601 37.443488 -0.00217921 0.01219951 -0.02869166 0.00006124 0.00000235 0.00010868
157 1 7.355101 18.448845 35.933991 -0.02077823 -0.01717764 -0.03332683 0.00009164 0.00019629 -0.00010438
158 1 1.276974 29.113438 28.945270 -0.02828866 0.01471881 -0.03587598 0.00006522 -0.00004057 0.00007475
159 1 29.019538 7.663607 24.046116 -0.01181270 -0.01794859 0.03128987 0.00012340 0.00007675 -0.00008847
160 1 28.826426 2.175604 20.672457 0.00597931 -0.01064967 -0.01440397 -0.00002282 0.00004177 0.00002918
161 1 2.338819 9.996356 38.201039 0.01348951 0.03968231 0.00474527 -0.00004215 0.00019208 0.00002742
162 1 10.953372 26.407189 38.432869 0.03125851 -0.00465908 -0.01796186 -6.58232534 17.94453449 27.68178728
163 1 22.776047 30.550434 36.656195 0.00311353 -0.02399586 -0.01196654 -0.00008332 -0.00006353 -0.00018950
164 1 1.770148 36.142404 22.723520 0.00964356 0.00280459 0.00251652 0.52005126 -0.72270234 -0.13157519
165 1 19.272524 7.655566 27.457112 0.03063990 -0.02579931 0.07596315 -4184.96476006 5219.99885890 575.46565890
166 1 9.942815 25.597827 36.864954 0.01473853 0.00280815 0.00838207 1.51591820 1.21412157 2.35197103
167 1 28.132687 21.938202 22.348463 0.02298944 0.05334143 0.01274880 0.00012437 0.00002671 0.00007711
168 1 13.548159 25.755480 14.684494 -0.02833817 0.02141236 -0.01363955 0.00001002 0.00003206 -0.00010672
169 1 19.426662 22.531043 31.470731 -0.00623703 0.03243560 0.04436609 0.00008875 -0.00003005 -0.00000318
170 1 20.745743 17.109955 38.713297 -0.00228851 0.00437753 0.02848204 0.00019835 0.00000528 0.00005900
171 1 34.840609 15.409389 35.288800 0.02685793 -0.01645031 0.07244735 14173.74380655 -20926.25807705 -54394.30192478
172 1 24.862145 35.049036 24.512419 -0.00719794 0.02671497 -0.00741944 0.00006364 0.00000200 0.00005202
173 1 0.825765 32.614535 27.225661 -0.00236068 0.02860966 0.02265898 -0.00019527 -0.00009868 0.00006968
174 1 34.732104 37.707762 21.988615 0.00963632 0.03984187 0.01354625 -0.00000237 0.00000719 -0.00022991
175 1 7.226653 9.456258 3.913382 0.04411721 0.01679210 -0.02716718 -0.00035545 0.00028126 -0.00010315
176 1 33.038036 16.446547 34.251710 0.00177412 0.00093434 0.05525233 0.37630105 -0.21660341 0.21665973
177 1 2.022659 38.751235 33.768332 -0.01918961 0.00940210 -0.00474121 126.64286514 134.86302303 281.96577051
178 1 33.973661 2.449553 21.332594 0.03066881 -0.03441786 0.03727440 -0.00007897 0.00005790 -0.00000015
179 1 5.648850 25.927227 36.550322 0.02397402 0.01683186 0.00498815 -0.00014750 -0.00013503 -0.00004602
180 1 32.498666 14.367446 15.552446 0.01462421 0.00925311 -0.02892506 0.00001447 0.00008345 0.00015063
181 1 14.793618 9.266911 33.706888 -0.01555418 0.03849917 0.02689574 0.00002909 -0.00006107 0.00003103
182 1 13.166064 6.711984 8.026684 -0.01937681 -0.02418211 0.02434414 -1560.90669653 -858.29372287 -237.63763041
183 1 35.199394 24.133912 28.101894 -0.01822908 -0.00512678 -0.00276185 -2.58813204 5.31877241 -1.90391511
184 1 35.655311 35.894796 29.707145 0.03250289 0.00146141 -0.01568757 -4.51041266 -30.61975323 57.62429376
185 1 12.297349 14.024143 30.388396 -0.01776004 -0.00374281 0.00843405 -0.00016567 -0.00004401 0.00017806
186 1 37.934286 37.047914 36.070959 -0.01564750 0.01328443 0.02224026 -0.00102278 -0.00053958 0.00083991
187 1 34.951068 38.166044 3.334251 -0.06997522 0.02744543 0.00870753 0.00018292 -0.00041210 0.00003799
188 1 18.019910 15.990704 17.931130 -0.03143826 0.06666745 0.01405144 -0.00009171 -0.00025659 -0.00007034
189 1 7.626368 12.783122 30.428697 -0.01929463 0.01397265 0.01470823 0.00000650 -0.00019511 0.00003269
190 1 4.466188 23.470728 15.301120 0.00156577 -0.01187493 0.02425072 2.44024343 2824.46308908 -2368.41424007
191 1 36.896627 28.375271 10.000810 -0.01149620 -0.05463496 -0.00386854 0.00003486 -0.00002517 0.00003135
192 1 23.142924 18.637925 21.518955 0.00996432 -0.00906083 -0.02464652 -0.00011750 -0.00022197 0.00009186
193 1 30.123304 8.318706 11.469702 0.00654956 0.00544588 0.04281059 0.00002515 0.00003319 0.00002846
194 1 10.488032 23.611149 34.186613 -0.00514333 -0.00192507 0.00091093 -0.00004760 -0.00016265 -0.00036622
195 1 26.423323 5.777282 14.483316 0.05793683 0.01674082 -0.05205917 0.00003259 0.00010340 0.00009166
196 1 5.560784 23.573598 35.409985 0.00035183 0.06094220 -0.01162404 -0.00004054 -0.00001502 -0.00006564
197 1 3.744975 18.425850 34.378264 -0.04089012 -0.03461728 -0.02487490 0.00007421 -0.00006034 0.00008164
198 1 27.735639 29.955310 25.528404 0.03421264 -0.00274719 0.00681236 0.00012262 -0.00016122 -0.00018319
199 1 29.304563 5.380505 5.558590 0.03008590 -0.01129830 0.00375502 -0.00073609 0.00015825 0.00034554
200 1 11.465824 29.656345 24.892526 -0.01309881 0.03136023 -0.02370802 -0.00017415 0.00000325 -0.00003240
201 1 19.201633 19.422929 21.371787 -0.05022220 0.04575591 0.02621455 -0.00011195 0.00004964 -0.00026753
202 1 14.546069 17.603699 14.115074 -0.01123548 -0.01038993 -0.01649407 0.00003840 0.00002369 0.00000497
203 1 6.441055 28.848390 18.538657 0.04263805 -0.00388657 0.04714227 -0.00001400 0.00004051 0.00016325
204 1 30.253224 5.237800 11.435704 -0.02323962 -0.00090708 0.00847094 -56.59158477 16.54947906 12.25263835
205 1 35.868681 26.680814 23.328015 -0.00606664 0.03978373 -0.07197379 -0.00007273 0.00015683 -0.00014837
206 1 21.164529 5.174186 12.937389 -0.03163050 -0.02660551 0.01381847 -0.00015624 -0.00007879 0.00010774
207 1 29.240932 25.216927 0.444567 0.01116459 0.01405327 -0.00761287 -0.00130093 -0.00182265 0.00087633
208 1 26.822985 21.124522 29.914846 0.04041076 -0.02084988 -0.00061372 0.00019940 0.00020671 -0.00001746
209 1 9.936788 14.522636 23.429938 0.02208574 -0.01670527 -0.03148963 -0.00058726 0.00025633 -0.00026536
210 1 24.378164 36.623215 2.805901 0.05006623 -0.00966195 -0.01584861 -0.00008358 -0.00000190 0.00001821
211 1 11.030466 1.205552 8.637963 0.00916430 0.00384500 -0.01629786 -0.00021044 -0.00009822 -0.00003599
212 1 28.538883 11.651676 16.440151 -0.02054317 -0.00854746 0.00751169 -0.00004271 -0.00012071 -0.00009940
213 1 22.260592 13.903424 23.526802 0.04252962 -0.02179977 0.03621444 0.00011279 -0.00003293 -0.00000300
214 1 20.413227 10.689044 25.399994 -0.01265746 0.05656225 0.03874298 0.00105436 0.00090228 -0.00118700
215 1 18.075681 31.366287 8.549916 -0.04209793 0.01837988 0.04402283 0.00071783 0.00130002 0.00077662
216 1 32.835878 14.446454 16.289334 0.02033372 0.00058751 -0.01268653 -0.00007698 -0.00016603 0.00011892
217 1 3.977404 14.597138 12.273084 0.01383689 0.04276137 -0.00476778 0.00001699 -0.00009259 0.00007356
218 1 31.592492 33.603191 21.422097 -0.03304905 0.01042226 0.04752502 -0.00001592 -0.00003475 -0.00004678
219 1 22.630110 28.676289 13.261944 -0.00843526 0.00044364 -0.03290722 -0.00006837 0.00005729 0.00005016
220 1 15.219642 29.013349 9.701214 -0.01367818 0.01480604 0.02721335 0.00005696 0.00016270 0.00029036
221 1 25.256373 13.501670 23.278688 0.00232624 0.00755660 -0.00211903 -0.00174324 -0.00042751 0.00094980
222 1 7.836843 22.508082 18.588029 0.00511958 0.03981654 0.03094283 0.00028171 -0.00013817 0.00051528
223 1 31.978911 28.762843 18.847553 -0.05288152 -0.01368946 -0.04379795 -0.00011280 0.00004262 -0.00001681
224 1 2.608369 0.401853 19.931899 -0.00778417 -0.01379756 0.00588756 0.00014272 0.00099668 -0.00082615
225 1 23.465812 16.719783 6.374666 0.04630923 -0.02161884 -0.01978579 649.09380275 -49.49336985 449.44318333
226 1 0.484443 7.278333 34.538257 -0.02448508 -0.01753754 0.00931484 -0.00014830 -0.00011118 -0.00003970
227 1 13.672720 19.412120 33.748802 -0.01507968 0.03280506 -0.00405517 -0.00012026 0.00012159 -0.00008688
228 1 32.624183 20.584860 31.976320 -0.01905009 0.01243046 -0.02398726 -0.00003007 -0.00006826 -0.00004930
229 1 13.779932 30.886749 21.067026 0.05506921 -0.00388202 0.00584822 -0.00013397 0.00018729 -0.00002496
230 1 22.025815 32.696933 17.601723 0.00302321 -0.01519770 0.03859275 -0.00006887 -0.00021293 -0.00012793
231 1 34.008090 31.881799 2.367885 -0.02051419 -0.02512436 -0.01177582 0.00012988 0.00044032 -0.00009901
232 1 18.628225 19.101688 18.209807 0.03034196 -0.01775699 -0.00216354 -0.00002941 0.00010463 0.00002083
233 1 8.545117 23.790921 9.539101 0.00480084 0.02334119 0.00114271 0.00009120 -0.00019798 -0.00003428
234 1 0.083861 14.519670 35.147686 -0.02336220 -0.02200564 0.03226986 0.00136241 -0.00023310 0.00002216
235 1 5.438020 22.076361 2.712843 -0.01654009 -0.03008937 -0.04818888 0.00005476 0.00002433 -0.00003552
236 1 14.409619 2.889954 37.557417 -0.03096057 -0.04422792 -0.02032948 0.00004288 0.00003590 -0.00011641
237 1 27.901652 12.425984 12.678659 0.00970618 -0.02307884 0.00616641 -0.00012998 -0.00008258 0.00002859
238 1 17.988469 37.441127 10.565175 0.01506834 -0.02369794 -0.00623653 0.00004409 -0.00001135 -0.00001334
239 1 28.245599 14.690011 1.522606 -0.00844528 -0.01048003 -0.04330736 -0.00002277 -0.00009422 0.00004453
240 1 15.801721 23.489063 10.946257 0.02561791 -0.00208555 -0.08181142 0.00019954 -0.00023059 0.00010082
241 1 15.557121 30.970661 11.587448 0.01944402 -0.02851499 -0.02345572 0.00002512 0.00018684 0.00010702
242 1 4.432414 32.684605 25.917951 -0.02227403 0.00214754 0.00624318 0.00020845 -0.00006162 0.00003175
243 1 37.431439 1.377242 33.928674 -0.01031655 -0.00395559 -0.00469723 -0.00202280 0.00099027 0.00011410
244 1 17.350297 14.682483 28.448549 -0.03131403 -0.00897544 0.00924107 0.26542768 -0.17957914 -1.57285299
245 1 15.417559 1.125560 5.606863 -0.03690125 0.04717865 0.04268630 0.00011311 -0.00015410 0.00002159
246 1 17.504092 20.851012 22.913351 0.04459746 -0.05572839 0.01717580 0.00025773 -0.00016028 0.00002524
247 1 25.678517 28.097154 19.218866 -0.00910862 0.00554060 0.01121303 -0.00015798 -0.00006519 -0.00004669
248 1 0.545966 1.966299 5.492286 -0.02705465 -0.03763799 0.06859666 0.00005547 -0.00001787 -0.00011487
249 1 26.768313 28.188322 23.547526 -0.04312196 -0.02346696 0.03309739 -0.00002539 0.00005699 -0.00011260
250 1 31.652831 13.435055 26.439529 0.00330273 -0.01776015 -0.00575940 -2226.99334235 1423.53495006 3635.93175286
251 1 3.261853 1.902210 1.679914 0.01932759 0.02341130 -0.00851297 0.00012139 0.00005464 0.00013037
252 1 9.930402 24.508207 12.466611 -0.01444754 0.03079752 0.03516219 0.00004450 0.00004586 -0.00013388
253 1 14.117861 32.458316 8.797073 -0.06539925 -0.00628157 -0.03493517 0.00000793 0.00034363 0.00024455
254 1 23.606284 1.471832 33.811464 0.03991697 -0.00042750 -0.01774829 0.00979317 0.00535474 0.00280327
255 1 5.072809 36.812864 20.187129 0.02151145 0.01484550 -0.02238579 0.00077288 0.00000920 -0.00053820
256 1 20.973371 8.831393 6.477772 -0.05287693 0.01962067 0.00045071 -0.00083271 -0.00003631 0.00040302
257 1 36.880498 16.042899 16.289833 0.05946297 0.00265141 0.02658532 -0.00035520 0.00010707 -0.00010074
258 1 3.206492 13.504457 4.082299 0.00465754 -0.02530549 -0.03557133 -0.00001183 -0.00009508 -0.00003930
259 1 20.123710 36.981315 9.398965 0.01225654 0.03297480 -0.03423681 -0.00005229 -0.00013286 -0.00006161
260 1 27.098629 0.197490 29.047510 -0.03112597 -0.00963667 0.00898439 0.00004115 -0.00009807 -0.00003972
261 1 1.475905 13.636159 10.001465 -0.02366115 -0.01292783 -0.02232400 -0.00007240 -0.00009796 0.00002980
262 1 14.639384 21.350890 6.382858 -0.00019632 0.01247571 0.00499743 -0.00000444 -0.00000029 0.00026341
263 1 28.935116 22.286021 18.625966 0.02798255 0.01659882 0.00190505 0.00105699 0.00051253 0.00071877
264 1 28.991268 29.544122 12.236708 -0.01477988 -0.01913189 0.02461948 0.00013688 0.00148800 0.00100749
265 1 19.078939 8.296279 22.577560 0.01421737 0.00369201 -0.02074895 -0.00005627 0.00013752 -0.00057651
266 1 8.853816 21.620683 9.838296 -0.01915890 -0.00248116 0.00665503 -0.00009783 -0.00001609 0.00021760
267 1 19.571413 30.136366 25.611774 -0.00408651 0.02397591 0.05508916 -0.00001354 0.00000214 0.00024042
268 1 6.286223 26.903957 0.770714 -0.02389911 0.03908638 0.01059827 -0.00047363 -0.00004739 0.00002483
269 1 30.978317 10.726035 11.981494 0.02535249 -0.03226480 0.04711083 0.00009893 0.00024160 0.00001196
270 1 32.995137 36.388728 22.124209 0.04325344 0.01944459 -0.03148020 -0.00012233 -0.00004495 0.00001548
271 1 12.669466 37.945367 20.423336 0.01309181 -0.02979295 0.01142729 1539184.34390147 2022309.20442139 2452781.50592481
272 1 15.261212 13.778505 38.695453 0.02855690 0.00791684 -0.04225003 0.00002506 0.00004607 0.00026009
273 1 2.706558 0.093116 20.880047 0.02264234 0.03302247 0.02331482 0.00060930 0.00221259 -0.00145886
274 1 33.703276 26.741628 31.127245 -0.00617938 0.00943104 0.01615227 -0.00042538 0.00050989 0.00084234
275 1 14.224116 35.728747 26.150524 -0.04047869 0.03320102 -0.04280619 -0.00016257 -0.00006275 0.00018510
276 1 18.857747 1.681407 10.725690 -0.01290753 0.02197888 0.00455026 -0.00021934 -0.00005442 0.00000490
277 1 36.555784 24.304083 8.237899 -0.03985983 -0.00162737 0.00482405 -0.28215474 4.09446736 -0.93991812
278 1 27.111103 7.466878 23.361732 0.00835836 -0.02180165 0.01032973 0.00013672 -0.00021837 -0.00000110
279 1 38.457703 6.445656 8.159043 0.04395976 0.03446068 0.00562935 0.00002000 0.00008191 0.00003751
280 1 9.747813 12.423412 29.442847 0.00520004 -0.01815121 -0.00772581 -0.00015703 0.00011750 -0.00000540
281 1 8.133083 31.122838 7.490552 -0.01196226 -0.04769174 -0.01565837 0.00014913 -0.00002830 0.00004951
282 1 2.503833 18.233226 24.211378 -0.06848037 -0.02278687 0.01458942 -0.00011196 -0.00010584 0.00000541
283 1 9.236268 7.703929 3.657477 -0.02186905 -0.07157132 -0.02660856 11146814.28079102 145756.18540666 -3624505.88157255
284 1 5.892170 31.217072 1.803875 0.00570928 -0.07976939 0.03768854 0.00014215 -0.00000289 -0.00000357