ITEM: TIMESTEP
0
ITEM: NUMBER OF ATOMS
3213
ITEM: BOX BOUNDS pp pp pp
0.0 36.491024
0.0 36.491024
0.0 36.491024
ITEM: ATOMS id type x y z vx vy vz fx fy fz
1 1 7.708621 34.716779 0.754843 0.01215235 0.01780749 -0.03034473 -0.00023643 -0.00006762 -0.00007670
2 1 34.490086 26.775568 11.012307 0.09600943 0.03442343 -0.04939036 11347673.14796287 -3971815.65760654 2676164.04240202
3 1 30.364920 32.593222 18.143424 -0.00000499 -0.05355827 -0.01602423 -1728283.11352387 -1025564.67847415 -2238404.56923229
4 1 11.457725 18.241207 10.780672 0.04273498 0.01984873 -0.03222099 -67955234.21266574 63248645.93231921 -41787427.15231764
5 1 21.130453 16.081225 22.786014 -0.00283594 -0.01039885 -0.01856017 0.00013146 0.00001785 -0.00021933
6 1 33.870142 7.591233 4.816510 -0.02131782 0.02653069 0.03707280 -0.00006778 -0.00004166 0.00005925
7 1 14.962604 32.119557 8.028403 0.00857081 0.02038409 0.02001089 0.00008675 -0.00024881 0.00003585
8 1 32.645339 26.264975 18.333363 0.01764426 0.03622354 -0.01315003 28.88198665 -36.91406135 -0.24250457
9 1 7.617534 25.032826 5.726172 -0.00605676 0.02583382 0.02187459 0.00005633 -0.00001177 0.00006731
10 1 8.604881 33.103680 7.494005 -0.00474423 -0.01736280 0.07032427 182.86764105 143.97601566 -55.36087414
11 1 3.437199 28.286224 21.411247 -0.05332452 -0.00862981 0.01163804 -137.16094149 -236.94765777 -289.77864295
12 1 12.260397 15.021542 31.675966 -0.02147727 0.03968585 0.03165717 -7170.24277242 -6148.34207519 15762.87920680
13 1 32.019372 10.792447 15.420128 -0.02099858 -0.00099136 -0.00836365 -0.00015253 0.00005067 0.00002901
14 1 17.651167 30.913917 5.136162 -0.03044183 0.04294896 0.01910515 -0.00011772 0.00004077 0.00017854
15 1 0.094369 16.648200 12.992254 0.01713006 0.05363853 -0.02968912 7.23351021 2.28897929 2.67963694
16 1 32.054397 22.200511 21.418221 0.00781954 -0.03774593 0.00545847 -0.00001001 -0.00044374 -0.00000336
17 1 31.428117 9.896261 23.454923 -0.02264521 -0.03110093 0.02330534 -0.00004688 0.00000568 0.00001182
18 1 28.842547 22.201320 4.881617 -0.01644052 0.00060121 0.03060235 0.00013429 -0.00000102 0.00010111
19 1 19.812918 32.653586 34.361819 -0.03689013 0.02425340 -0.02871897 0.00015403 0.00012256 0.00007820
20 1 14.408903 33.900470 11.676795 -0.01173566 -0.02429984 -0.03529258 -75.17496308 -5.31363750 57.53198882
21 1 25.205326 20.337219 14.446258 0.00611723 -0.04041779 0.01756419 -3.96497803 -2.31339731 7.80913363
22 1 5.265635 16.449118 21.314611 -0.02635468 0.00172414 0.00005224 0.00005659 -0.00008095 0.00018184
23 1 14.015890 21.619787 18.609094 0.02022634 -0.01648484 0.00396374 -0.00007312 0.00007462 -0.00013012
24 1 2.568875 23.274386 17.531557 -0.08739539 -0.05024315 -0.04763486 0.00003570 -0.00008454 -0.00008405
25 1 32.510131 13.709605 8.178160 -0.02095725 0.02559539 -0.00724890 -0.00004483 -0.00026472 -0.00027624
26 1 34.341579 10.468396 34.620670 -0.01946115 -0.04366104 -0.01538473 0.00011856 0.00003605 -0.00017114
27 1 3.575349 25.058142 23.760358 0.03254296 0.02198145 -0.00518144 0.00009626 -0.00137910 0.00094212
28 1 24.860444 26.532066 31.319081 0.01092141 -0.03350426 -0.01009763 0.00004803 -0.00013989 0.00007387
29 1 34.914858 8.650975 11.269990 -0.02387083 -0.01386256 -0.02516445 -31.03380384 99.02730157 -4.11658690
30 1 21.022391 31.515921 1.984978 0.07288784 0.01713932 0.01271266 -0.00004065 -0.00002340 0.00009750
31 1 32.619455 27.637660 6.459484 0.01639881 0.00257850 0.01648737 -0.00018820 0.00021186 -0.00038626
32 1 19.560150 18.129208 6.191804 0.04574530 -0.01749806 -0.00616645 -8.48160895 -17.78608705 27.70732962
33 1 12.816972 20.821362 23.431775 -0.01649307 -0.00027697 0.01434365 -1781.82023653 8974.26249037 7611.59673611
34 1 16.499365 26.017890 5.422363 -0.00558511 -0.02380377 -0.03920366 -85.63425587 -20263.45219882 5016.55193518
35 1 12.039006 18.058587 29.366884 0.00772201 -0.04124765 0.00263041 -0.00000208 0.00141451 -0.00109730
36 1 4.062693 1.396901 28.127095 0.05715764 0.00099753 -0.04299931 -0.00003091 -0.00001515 0.00022386
37 1 18.432453 27.972861 15.181542 0.02305322 -0.01961176 -0.02065750 0.00013201 -0.00002242 0.00016693
38 1 11.789432 3.839848 30.722780 0.00368558 -0.03012010 -0.07005555 0.00001095 -0.00002207 -0.00006888
39 1 21.085178 13.584653 21.708053 0.03424859 0.05388910 -0.03078031 -0.00001253 0.00012469 -0.00002033
40 1 32.137583 9.570556 33.961681 0.02277794 0.01926521 0.01279023 -0.00005558 -0.00008591 0.00005169
41 1 35.099423 26.603947 10.912245 0.01945296 0.04037863 -0.01619304 -10327334.70451020 2908725.29034227 1695898.26011396
42 1 19.466200 10.423334 36.146151 -0.02337150 -0.03785939 -0.00579627 -0.00011685 0.00007098 0.00004274
43 1 30.650748 30.892468 18.331606 -0.01500939 -0.02621290 0.00845607 -4.15218809 24.70640607 -2.73371820
44 1 4.465927 13.967550 28.420969 0.06759836 0.00180133 -0.01502744 0.00001595 0.00005417 0.00004841
45 1 3.476830 35.848460 15.814329 -0.02960544 -0.02792116 -0.02360905 -0.00011193 0.00031268 -0.00015845
46 1 10.721212 1.068717 2.252732 0.00130186 0.04274312 -0.04219598 0.00001643 0.00016891 0.00001390
47 1 29.446951 31.061886 27.311900 0.00014613 0.02184992 -0.00306574 0.00020344 -0.00001753 -0.00002442
48 1 15.152850 19.773063 6.652660 0.00219295 -0.02738241 -0.06471991 -0.00054964 0.00031897 -0.00004607
49 1 25.045122 9.189812 22.065025 0.04423022 0.02510325 0.00587162 0.00021707 0.00004579 0.00018881
50 1 27.352102 28.123097 31.262546 -0.03149047 0.04867566 0.01525925 0.00001311 -0.00002003 -0.00008624
51 1 34.330653 20.874362 3.708596 -0.03883003 -0.00428278 0.02311336 -0.00003887 -0.00007721 0.00007048
52 1 1.745988 31.802190 15.245779 0.01416954 0.00336382 -0.00446440 0.00002223 0.00012256 0.00005659
53 1 12.937045 8.456730 6.047661 -0.00627340 -0.02124644 0.03127714 169.33375102 54.57072707 436.10424670
54 1 14.198006 16.893356 31.452976 -0.01915344 0.03704518 0.05295772 -0.03474055 -0.03348329 0.00407060
55 1 0.558116 29.783325 9.872363 -0.03435208 0.03074746 -0.01742468 5675.22290339 -96855.16158433 94706.38174401
56 1 21.889712 23.995583 0.682370 -0.03013007 0.06294206 0.04246300 0.00021152 0.00000568 -0.00001247
57 1 23.243185 12.820253 21.500986 -0.03090294 -0.00980817 -0.01480958 0.00007034 -0.00001934 0.00012450
58 1 4.017265 15.583913 16.489733 -0.06841610 -0.02821514 -0.00288784 0.00028510 0.00001210 0.00021784
59 1 8.377839 34.310865 0.495635 0.00259643 0.01160709 0.04359719 -0.00005677 0.00006314 -0.00000552
60 1 3.828371 13.527136 27.061788 -0.00613961 0.01195011 -0.00169607 -0.00002238 0.00010279 -0.00006138
61 1 32.088099 35.914615 0.442888 0.01581475 0.00811484 -0.00718164 -0.00007501 0.00013927 0.00003159
62 1 20.281174 22.223222 14.105959 0.01128406 0.04991449 0.02570991 -0.00033320 0.00009815 -0.00019662
63 1 21.076565 8.411329 9.546441 -0.02652311 -0.00777760 0.01624414 -0.00002795 -0.00000305 0.00015615
64 1 19.531980 11.694054 32.283038 -0.02796125 0.02112072 0.00447347 -0.00004903 0.00007053 -0.00008167
65 1 11.649045 22.059191 13.875680 -0.01263735 0.02824699 -0.06721513 -0.00007482 0.00044234 0.00036542
66 1 34.161539 10.170411 13.696957 0.01947623 0.00272936 0.03606052 0.00214004 -0.00384909 -0.00617045
67 1 18.001084 6.127041 19.859851 0.00150336 0.03360903 0.02888033 -0.00007780 -0.00023934 -0.00010195
68 1 7.784461 4.327346 20.038003 0.04611769 -0.03973657 -0.01825329 -0.00000117 -0.00003330 -0.00003727
69 1 16.658381 23.406250 20.990626 0.00416660 -0.02438824 0.04486836 0.00004992 -0.00012363 0.00015837
70 1 17.173467 22.998406 29.821563 0.00774199 0.04747523 -0.02288386 -0.00014114 0.00009160 -0.00009677
71 1 0.908805 34.230576 9.723921 -0.01729345 -0.00566700 -0.02143102 -0.00001128 0.00085866 -0.00007622
72 1 28.284793 16.786677 17.025967 0.00460092 0.00289787 -0.04659094 0.00018832 -0.00028702 0.00018569
73 1 27.198547 17.313583 13.890212 -0.04191694 0.03319531 -0.01961216 0.00127588 -0.00192966 -0.00034333
74 1 1.550358 3.987554 22.165956 -0.01184294 -0.00047507 -0.00547261 -0.00014744 -0.00017473 0.00017980
75 1 27.020080 10.641695 21.313773 -0.01811119 -0.01533208 -0.00876392 -0.00011122 -0.00009999 0.00008171
76 1 5.272014 12.112577 30.645190 -0.03706894 -0.01696923 0.01608954 0.00005964 0.00009557 -0.00011266
77 1 1.791592 17.209369 13.600200 0.01939082 0.01590436 0.04171469 -7.38924131 -2.44301900 -2.64691745
78 1 9.428886 34.551524 14.733152 -0.00173972 -0.00405120 -0.02513335 -0.00012909 0.00002691 0.00020651
79 1 17.926878 9.041623 28.467591 -0.03320531 -0.01157012 -0.01692774 0.00006385 0.00005599 0.00010041
80 1 13.493924 12.891531 11.190614 -0.00812284 -0.02396369 0.00769930 0.00011946 0.00001612 0.00002565
81 1 32.784784 13.509285 20.614139 0.00558696 -0.00870756 -0.01123861 -0.00000477 -0.00013500 -0.00003825
82 1 6.094347 36.146845 1.992997 -0.03370743 -0.01332779 0.00682311 -0.00003703 -0.00009481 -0.00011994
83 1 13.131989 31.321703 34.317994 -0.01368365 -0.00284075 0.00608458 -0.00004423 -0.00001735 -0.00010860
84 1 35.547546 33.928070 16.860505 0.00641022 0.01282514 0.00882499 0.00019273 0.00013502 0.00008434
85 1 34.339008 15.531504 32.581246 0.00784594 -0.00245865 -0.00681047 0.00015537 -0.00011367 -0.00002186
86 1 9.219548 20.255771 4.332335 -0.03470228 -0.04578224 -0.00265820 0.00000603 0.00006211 -0.00001933
87 1 18.520147 2.720548 12.510766 0.01086297 0.00567705 -0.01171487 0.00010322 0.00012501 0.00012938
88 1 13.509916 31.742512 5.874127 0.00704629 -0.01469390 -0.05266278 0.00018452 -0.00012882 -0.00017526
89 1 4.532908 3.223451 27.879366 0.02605065 0.00194631 0.00912389 -0.00008172 0.00003999 0.00002291
90 1 18.630347 20.399929 33.825816 -0.02968783 -0.02467920 -0.00744040 -3675.66025049 99.98154338 -896.77593304
91 1 15.799789 11.176113 12.880971 0.00291987 0.01297202 -0.02568327 -0.00003208 0.00014035 -0.00002097
92 1 19.271259 7.343094 31.291242 0.03212793 -0.02675028 0.01733857 -0.00001620 -0.00005678 0.00019265
93 1 35.240805 35.427594 11.045573 0.00875720 -0.01646280 0.02263738 -0.62797778 2.09506919 -0.48853090
94 1 23.054097 22.658873 11.740400 0.03932231 -0.01539250 0.02575356 -0.00060995 0.00074696 -0.00084900
95 1 34.763347 3.389757 30.887721 0.01867468 -0.04375784 0.05078529 -0.00014434 0.00006321 0.00023563
96 1 10.618944 26.752706 3.364715 0.01925505 0.02906037 0.02024401 0.00004666 0.00004934 -0.00004011
97 1 21.694739 13.545931 18.233858 -0.02926373 -0.00805378 0.02030675 0.00004498 0.00008884 -0.00001721
98 1 30.592350 33.379144 33.845545 -0.06440009 -0.02136093 -0.04638355 -0.00006106 0.00009671 -0.00006225
99 1 20.598265 8.969789 17.032433 0.00005879 0.06896590 0.00564849 -0.00011824 -0.00001421 0.00015199
100 1 18.102416 17.494004 27.862104 -0.01540405 -0.00686383 0.01337782 0.00017192 -0.00007372 -0.00014443
101 1 33.937846 4.578191 25.089409 0.02726489 0.00931140 0.02023983 0.00008682 -0.00022248 -0.00005787
102 1 35.712314 27.477488 8.970988 -0.02168703 -0.01637275 -0.02833654 -0.08173619 -0.03396546 0.16236458
103 1 6.432144 15.752959 20.248999 -0.00627124 -0.00724770 -0.00541325 0.00002597 -0.00000355 0.00011380
104 1 26.531089 32.707901 35.541730 -0.02419228 -0.07133282 -0.02545131 -0.00004248 0.00005620 -0.00001939
105 1 35.608576 1.529349 20.250852 0.02849777 -0.02676941 -0.02704570 0.00003368 0.00006448 -0.00003178
106 1 4.574831 15.276837 9.988179 -0.01276565 -0.02285010 -0.00297870 0.00010445 -0.00008136 -0.00010006
107 1 31.509711 10.051518 2.793011 -0.01609342 0.01713871 0.02663236 0.00004627 0.00002159 0.00003798
108 1 28.911043 28.291344 3.074274 -0.03427460 0.02149923 0.03268147 -0.00014476 -0.00009013 -0.00006903
109 1 23.307743 18.915531 15.689870 -0.05493122 -0.04365543 -0.03341975 0.04017790 0.03024746 -0.02644149
110 1 3.942734 30.991977 28.502790 -0.00688709 0.04670081 0.01284676 0.00002139 -0.00002813 -0.00019982
111 1 13.000597 29.069738 8.803688 -0.01203481 0.02214354 -0.00904519 -162.16180238 -111.75836411 113.25656386
112 1 18.566951 21.595111 11.851685 0.02397821 0.01339087 -0.02689192 0.00015811 0.00001841 -0.00020460
113 1 31.485156 16.291387 32.560804 -0.02332015 0.03295034 -0.03048476 -0.00003897 -0.00018546 -0.00001964
114 1 8.360678 28.460489 12.327052 0.06331612 -0.01190948 -0.03409360 -0.00020370 -0.00009682 0.00019713
115 1 20.472257 6.623076 8.774254 0.00426714 0.01518657 0.03283769 0.00005450 -0.00008723 -0.00008815
116 1 16.024390 16.423385 3.345090 -0.08256707 0.01451508 -0.01808167 -0.00035095 -0.00024692 -0.00028870
117 1 22.739976 12.085593 31.096271 0.04624422 0.03549229 -0.02866086 -0.00009723 -0.00010198 0.00011523
118 1 22.297999 23.578176 30.145042 -0.00081560 0.04599803 -0.03539490 311.59353602 76.02823560 -563.23403040
119 1 21.180255 9.869115 13.425621 0.01810872 -0.01624368 -0.02078806 -0.00013532 -0.00007394 -0.00006322
120 1 33.246314 24.010883 4.165997 -0.01818590 -0.01150688 -0.03329517 -0.00000924 -0.00019750 0.00001695
121 1 17.288368 13.143774 34.899985 -0.03288492 0.01621280 -0.00439024 0.00033610 0.00002696 -0.00004993
122 1 12.187711 25.477332 30.564660 0.00136794 0.04039602 0.03870545 0.00017170 0.00008678 0.00012092
123 1 13.197016 32.571749 11.307041 0.03615437 -0.00264846 -0.01030951 7.86883974 8.62800038 2.40162399
124 1 25.889794 14.244943 2.092270 0.01855413 -0.02098063 -0.04855387 0.00005032 -0.00010377 -0.00011011
125 1 27.246154 16.180460 0.455652 -0.01226837 0.01925796 -0.02653248 0.00009697 -0.00007066 -0.00006142
126 1 36.370094 25.404219 19.103157 0.03728478 0.01680152 0.00864892 0.00150946 -0.00048939 0.00017017
127 1 8.255394 34.946405 25.679794 0.01324072 -0.00237863 0.02440337 -0.00001059 0.00004828 0.00007008
128 1 27.638501 10.952410 25.275280 -0.04309905 -0.04810522 0.03523708 -0.00002866 -0.00021137 0.00005212
129 1 19.351455 27.489613 17.806794 -0.01416585 0.01231069 -0.04132451 -0.00004519 0.00001060 -0.00011920
130 1 5.596320 20.704819 16.875195 -0.00678912 0.01537548 0.01026454 0.00016308 -0.00016995 -0.00003772
131 1 22.519455 11.601376 21.916418 0.04152982 -0.02478462 -0.04883675 -0.00003864 0.00018444 0.00008520
132 1 1.654055 35.771976 16.451095 0.01808101 0.01720392 0.05189810 0.00006245 -0.00004755 0.00008041
133 1 20.485687 32.364247 9.240795 -0.04298337 0.00754999 0.03522151 0.00021089 -0.00025711 -0.00000502
134 1 35.991731 20.045090 15.080590 0.03110760 -0.00340606 0.05774496 -0.00017870 0.00134113 0.00088136
135 1 24.217826 14.897218 21.800852 0.01583013 -0.02142586 0.01114322 -24.57407532 5.97535498 30.07802962
136 1 22.650537 36.129809 32.061943 -0.00125848 0.00814771 -0.00413990 0.00010912 0.00011905 0.00007664
137 1 27.019238 27.464903 7.081813 -0.01111423 -0.00105780 -0.00684176 0.00001067 0.00011145 0.00003945
138 1 18.844173 4.932055 24.083815 0.06464737 0.03816968 0.04626075 0.00007238 -0.00008490 0.00015321
139 1 29.477693 18.037208 18.348588 0.02925603 0.00990662 -0.00061841 0.00016064 -0.00000532 0.00003690
140 1 30.216465 3.237166 12.091925 -0.02258494 -0.00248175 0.01532634 -0.00011001 0.00008995 -0.00004524
141 1 36.304231 1.789055 10.176266 0.01217136 0.04106401 -0.03894049 0.00010135 0.00051273 -0.00001415
142 1 4.292250 11.371133 33.109087 0.06129330 0.02676893 0.00599244 -723.98185101 847.54871510 -650.74487521
143 1 7.251083 28.170125 8.913700 -0.03182048 -0.02562163 -0.00646305 881.41500635 36414.17129973 37800.54243214
144 1 17.672359 8.384707 24.999103 0.03587407 -0.01895438 -0.00542367 -0.00017180 0.00005386 0.00010652
145 1 33.756483 31.835750 14.505466 0.02534496 0.01322130 0.03502543 0.00015438 -0.00010645 0.00001780
146 1 5.387427 23.686349 31.262908 -0.01411738 0.01767283 -0.01358640 0.00023320 -0.00006179 0.00000729
147 1 7.613956 7.606536 8.044434 0.02635863 0.02198919 -0.02415633 -0.00024734 0.00004742 0.00002829
148 1 28.777965 15.494365 8.360808 -0.03822060 -0.00498136 0.02230924 -0.00003651 -0.00003543 -0.00003406
149 1 26.317144 9.714756 22.793035 0.04861681 -0.00987691 0.01068326 -0.00006568 -0.00016320 -0.00007327
150 1 8.819114 24.191340 29.124238 -0.01209282 0.00490479 -0.08693754 0.00013207 -0.00011072 0.00016019
151 1 36.307425 13.840429 15.960113 -0.05113736 -0.01314131 0.01030150 -1647210.86327649 27254609.43593220 -1472286.20250907
152 1 27.639749 7.444734 4.937814 -0.03844962 0.02210558 -0.01138810 -0.00011480 -0.00003117 0.00000540
153 1 19.576768 24.489243 23.461396 0.00494703 -0.02835594 0.08526860 0.00000062 0.00012360 -0.00012379
154 1 19.680713 7.266668 6.830827 -0.00387479 -0.05620246 -0.03266420 -7750.06040254 2875.23165622 -213.06779293
155 1 11.464546 26.480703 25.778181 0.03709619 -0.02388505 0.03728486 -0.00004762 -0.00006136 -0.00000641
156 1 3.317496 4.436277 18.282135 -0.01057165 0.00029963 -0.00701359 184.37405542 45.31756790 31.41009459
157 1 23.558547 0.975219 22.799277 -0.01254766 -0.00407127 0.01437907 -0.00004439 0.00008982 0.00022086
158 1 19.702368 7.287580 2.497330 0.02945786 -0.01127620 -0.05326213 -0.00008623 -0.00004795 -0.00089895
159 1 17.606509 7.254998 14.429191 0.04722527 -0.03065243 0.05478201 0.13911407 -0.07079265 -0.01721137
160 1 33.864113 15.992157 5.637179 -0.01947572 -0.00323311 0.00290898 0.00018596 -0.00014747 0.00003780
161 1 7.788149 7.805398 35.770682 -0.06349182 0.00314612 -0.01180581 0.00012672 -0.00002648 -0.00003125
162 1 0.382348 5.416492 35.578061 -0.02557392 0.03661357 -0.02702758 -0.00012644 -0.00002861 -0.00008485
163 1 17.414548 2.657574 1.638037 -0.02732921 0.02044733 0.00550909 0.00006742 0.00010797 -0.00001919
164 1 17.046779 17.085211 7.883326 -0.06371802 0.03878980 0.00953872 -0.00089025 -0.00046004 0.00054176
165 1 25.421181 21.292812 23.560036 0.03368947 0.02214214 0.01372815 0.00003020 -0.00003406 0.00000989
166 1 21.091812 0.730935 22.989817 -0.02629758 0.04579379 0.03562188 -0.00000933 0.00011072 -0.00010742
167 1 35.183353 23.564048 31.424951 0.03779535 -0.02062201 0.00228042 199.88849532 -262.00254978 163.69855969
168 1 21.959955 14.729993 25.257264 -0.00104868 0.03818023 0.01454268 -74062.59384194 -162316.38995785 -14433.91390407
169 1 5.895908 31.503288 18.892228 -0.00223240 -0.03865236 -0.01184921 0.00028062 0.00046265 -0.00041188
170 1 1.285703 15.889127 34.926739 -0.02919349 0.04088262 -0.06933260 -0.00017936 0.00018456 -0.00011083
171 1 29.952264 33.334681 16.768284 -0.05156593 -0.05468928 -0.01781148 16.36956197 -29.41289099 54.55043996
172 1 29.478492 4.466928 29.207315 0.06171852 0.01799355 0.00931417 -0.00009846 -0.00010976 -0.00014769
173 1 30.586008 9.993681 15.895607 -0.04745074 -0.00546391 -0.01502188 72379085.38554583 -416107.99689779 12014298.07695224
174 1 10.771644 24.950877 30.646671 0.02014075 0.02633722 -0.02464307 0.00005555 -0.00008012 -0.00030417
175 1 2.531013 19.045789 18.189362 0.04555505 0.00733556 0.00484040 -0.00003406 0.00001858 0.00015956
176 1 29.820384 7.796820 11.482035 0.01055129 -0.01896137 -0.01456863 -0.00042700 -0.00031064 -0.00042158
177 1 20.982436 29.357280 29.008385 -0.01818728 -0.03285946 0.00941704 -0.00010811 0.00008917 0.00010335
178 1 29.161567 16.865221 0.473751 0.01404333 0.01519084 0.02927076 0.00013819 -0.00003353 0.00004089
179 1 17.056409 34.235464 29.323382 -0.00993923 0.06208641 -0.02749977 0.00005900 0.00015243 -0.00002895
180 1 21.079909 7.782054 25.980257 -0.00814716 -0.03072810 0.00427287 121.01590434 -89.43747515 -22.52709607
181 1 4.597916 26.672216 3.059538 0.05126926 -0.04054893 -0.01550621 -0.00019456 0.00011589 0.00007547
182 1 3.647696 12.826785 15.914015 0.00500656 -0.01097831 -0.00244066 0.00175971 -0.00063014 -0.00000472
183 1 30.339583 22.672164 33.978896 -0.00735931 0.00042050 0.00864199 -0.00016243 0.00011415 0.00008516
184 1 3.454616 7.267507 18.039130 0.06813332 0.01159482 0.01145860 -0.00092913 -0.01873935 0.00186147
185 1 26.695739 23.067228 26.093377 -0.03634404 0.04329959 -0.00169886 0.00009690 0.00000433 -0.00007028
186 1 4.984555 12.282941 17.543904 0.00050355 -0.05650039 -0.08277128 286.66664845 -317.31331067 -303.54801252
187 1 29.610806 28.352167 3.926907 -0.02312637 -0.00359602 0.03581530 -0.00003370 -0.00006845 -0.00003933
188 1 5.860760 1.919256 2.525424 -0.03802139 0.01855255 -0.02561330 0.00004253 -0.00018363 -0.00003371
189 1 25.701169 7.655762 33.656554 -0.01036430 -0.03144460 -0.01848402 -0.00012953 0.00005044 0.00001357
190 1 14.690478 32.009317 24.648488 -0.06831000 0.02176846 -0.06585476 0.00001028 0.00019395 -0.00003642
191 1 21.248116 30.241356 26.101813 0.00630904 0.00227808 0.00413543 0.00001055 0.00003145 -0.00016124
192 1 19.499867 24.237482 8.141445 -0.00945210 0.00290706 -0.04221249 0.00026577 -0.00013055 0.00039125
193 1 1.244766 25.552016 28.498041 0.03161314 -0.03792733 -0.08397156 0.00057711 0.00035314 -0.00063640
194 1 33.271197 26.590847 3.850383 0.01356364 -0.04684542 -0.00886142 429.18754700 358.05616483 -384.96005872
195 1 20.751606 11.372809 11.625369 0.01684816 0.02684444 -0.00864640 0.00002687 0.00011857 0.00008728
196 1 10.691035 19.159818 1.269618 -0.00356300 0.00548233 0.00547566 -0.00004420 0.00007441 0.00006442
197 1 28.246219 13.295396 5.572716 0.02873981 -0.03000695 -0.00865529 0.00013774 0.00005248 -0.00005771
198 1 4.460022 12.866323 6.151780 0.00959161 0.03191060 -0.03966856 -0.00003143 0.00017732 0.00006838
199 1 23.934218 21.454750 34.586927 0.01070019 -0.06448284 0.00102207 0.00043518 0.00001720 0.00040257
200 1 34.135862 8.628891 13.157148 -0.05089271 0.02542523 0.03711567 1.10166987 0.03104972 -2.66821261
201 1 25.587359 17.758604 4.634437 -0.02144992 0.02269917 0.00572171 0.00002983 -0.00002587 -0.00015013
202 1 18.114503 20.152142 35.770789 0.00861238 -0.03068791 0.00922527 0.80718947 0.38785606 -3.04429904
203 1 9.790126 17.268242 30.378632 0.04485195 0.01440216 0.00425620 -0.00172902 0.00155783 -0.00089315
204 1 12.129359 5.471046 10.293913 -0.07857453 -0.02923773 0.06695977 -0.00023650 -0.00014415 0.00036223
205 1 35.362106 26.530624 21.010722 -0.02585115 -0.04107958 -0.08625913 0.00117468 0.00005543 0.00146564
206 1 22.959209 8.157434 12.268375 0.00844764 0.03841780 -0.01683953 0.00015994 0.00010775 0.00003626
207 1 28.171465 27.018685 18.242883 0.01154244 0.00094116 -0.01683562 -0.00086152 -0.00010288 0.00006252
208 1 12.121828 3.048212 26.219687 -0.03790801 -0.01711808 0.01619031 -0.00006686 0.00020770 0.00011677
209 1 19.838236 18.036183 2.233573 0.03536661 -0.06162756 0.00167924 0.00030685 -0.00002281 -0.00132432
210 1 21.040578 4.142247 21.058543 0.04438837 0.01261923 -0.02595945 -0.00016434 -0.00001208 -0.00025714
211 1 32.844305 17.968485 21.903830 -0.02084009 -0.01139228 0.04147977 -0.00019111 -0.00001130 0.00003647
212 1 33.891039 12.841562 31.591652 -0.00437885 0.02789686 0.01662264 -34.37549548 -56.65516338 -36.07156713
213 1 25.526811 3.913338 27.163443 0.00294389 -0.00421329 -0.01490198 0.00013068 0.00003638 0.00002836
214 1 35.194094 22.328211 3.918974 0.02725136 -0.01971185 0.05301836 0.00026980 -0.00071138 -0.00001501
215 1 24.123242 22.674881 6.625905 0.00227180 -0.03091038 0.02594011 -0.00004676 0.00004997 -0.00010618
216 1 6.499048 31.184295 20.314550 -0.02754324 0.00223862 -0.03008048 0.00060592 0.00054979 -0.00023064
217 1 26.383190 29.771078 13.600111 0.01027219 0.00293958 0.01375072 0.00006778 -0.00003451 0.00006437
218 1 16.452920 8.846974 7.835727 -0.01816426 -0.01759689 -0.01232961 -0.00028183 0.00095408 0.00111568
219 1 33.692161 24.981204 18.358162 -0.00283256 -0.00463556 -0.00028938 -29.20463252 35.81506265 -0.69176777
220 1 25.347203 5.810652 3.234963 0.02817412 0.01419071 -0.02115623 0.00000122 -0.00004932 0.00011931
221 1 32.019818 23.694910 4.927845 -0.02854553 -0.01459096 0.00760340 -0.00086180 -0.00197045 0.00079081
222 1 17.953989 9.615337 14.646631 -0.04828116 0.00690721 -0.00911065 -0.04569816 -0.30939613 -0.02868220
223 1 6.803051 21.054657 16.057876 0.00110253 -0.06193748 -0.06152574 -0.00001326 0.00006544 -0.00009465
224 1 20.293228 19.535912 35.313230 0.00935380 0.00080796 0.01044562 -0.22241955 0.11548893 -0.19902684
225 1 35.614787 1.741178 21.282898 -0.00618956 0.03523821 -0.00024964 -0.00002526 -0.00010555 0.00012444
226 1 30.853888 5.936620 28.793388 0.01005020 -0.02800033 0.00033506 -0.00020927 -0.00006439 -0.00007259
227 1 21.768228 31.432802 5.603734 -0.01391645 0.03420674 0.04295971 0.00020304 0.00004086 0.00006428
228 1 32.397893 9.062455 35.477779 0.02112737 -0.01067334 -0.00807226 -0.00021099 -0.00005462 0.00024039
229 1 27.145450 5.967847 7.839185 -0.02810019 0.03962435 -0.02876283 -334.31262433 -494.80108847 226.77106006
230 1 29.274120 11.591482 25.708551 0.02980657 0.06803992 0.00401024 0.00004033 0.00001198 0.00007455
231 1 20.355631 5.704281 12.931260 0.02524536 0.02611870 0.02650162 0.00222896 -0.00103422 -0.00109051
232 1 32.549702 9.385345 9.649018 0.00358062 -0.04418424 0.00845779 411.85666127 2.30147088 -645.97211658
233 1 17.206689 11.267725 12.323096 0.00363258 -0.01732782 -0.03361738 -0.00003665 0.00080142 -0.00039625
234 1 10.753340 31.563568 9.916303 -0.01888381 0.02895673 -0.01351283 -0.00028949 0.00058938 0.00224582
235 1 32.266363 7.367297 29.801463 0.00996817 -0.01856334 -0.04085129 -0.00016720 -0.00009223 0.00001819
236 1 18.674353 36.487932 27.036067 -0.00798051 -0.00471108 0.03217708 0.00002993 -0.00005439 -0.00001717
237 1 28.452665 13.594324 27.692369 0.00471019 0.01820137 -0.00686105 -0.00003349 -0.00005748 -0.00002468
238 1 3.660797 33.295039 23.098869 0.02352161 -0.03851998 -0.02755396 -0.00004829 0.00021182 0.00012011
239 1 14.220137 34.179758 25.798950 0.02090145 -0.04504175 0.00418302 0.00016859 -0.00020424 -0.00002041
240 1 3.207628 12.216682 17.125301 0.02133441 -0.01076222 -0.05998071 12.39735707 0.46158654 2.92086759
241 1 32.576570 22.064308 29.290832 0.01290079 -0.04344016 -0.01045853 -0.00170413 -0.00090798 -0.00123115
242 1 12.110221 5.594746 10.497823 0.04690245 0.02674493 0.01633586 -0.00000665 -0.00017826 0.00042940
243 1 26.267323 31.551215 10.833560 -0.02809777 0.04235540 0.00247357 0.00014163 -0.00007340 -0.00014244
244 1 13.329135 21.757587 31.602043 0.02660885 -0.00577055 0.00489450 -0.00015878 -0.00002268 -0.00005369
245 1 4.490304 20.737869 36.140755 0.03640633 0.01411217 0.04558219 -23.70933245 61.99103391 -250.27474288
246 1 7.488731 32.627208 4.451950 -0.02050634 0.00316347 0.03451124 -0.00065671 -0.00013199 -0.00156642
247 1 4.036950 13.934427 0.220342 -0.02250883 -0.02522605 -0.04328584 -0.00011403 0.00037194 0.00068525
248 1 9.843160 27.875580 25.322333 -0.05391275 -0.03067135 -0.01434553 -0.00001742 -0.00000157 0.00003946
249 1 18.340893 1.766948 16.233224 -0.00639231 0.00217361 0.01197290 0.00002058 -0.00020731 -0.00013984
250 1 14.334585 8.409638 23.759292 0.04335674 0.02312358 -0.01365508 0.00004767 0.00020124 -0.00001679
251 1 36.247889 2.942246 32.174757 -0.00900380 -0.02728338 0.05528552 0.00011549 -0.00019075 0.00005180
252 1 11.461321 10.294583 16.923449 0.04103994 -0.02506741 0.02162927 0.00017273 -0.00019911 -0.00005222
253 1 10.695021 16.076659 29.305415 -0.02148983 -0.02291433 0.01030606 0.00190092 -0.00128810 0.00280090
254 1 16.921163 24.450596 0.820869 -0.08148018 -0.01622028 0.02877009 -0.00010127 -0.00018128 -0.00038056
255 1 29.692689 1.032513 1.289552 0.02553901 -0.00817900 0.00528704 -0.00010942 -0.00001492 0.00001595
256 1 3.768450 27.722311 34.973880 -0.01837272 0.01706136 -0.05024772 -0.00006915 0.00014398 0.00010985
257 1 31.478320 25.438263 30.662794 0.00391912 0.00599931 0.01650518 -0.00094530 0.00056605 -0.00026539
258 1 18.172719 6.812503 33.599955 -0.00224008 -0.00499506 -0.01458794 18.36892300 8.88585259 -17.87391341
259 1 23.603188 26.691675 19.268826 0.04178963 0.04593746 -0.00652724 0.00002951 -0.00011445 -0.00003037
260 1 28.044618 23.759173 35.550663 -0.00932652 0.02775008 0.00056314 0.00005179 -0.00005486 0.00008330
261 1 0.572302 22.616343 0.577653 -0.02207775 -0.03771357 0.01599148 -0.00073350 0.00039789 0.00031379
262 1 28.131426 10.813660 14.908598 0.02931822 0.00474817 -0.04040352 0.02790887 -0.00936946 0.01129477
263 1 24.424205 3.530180 30.487378 0.03488745 -0.02667929 0.03323008 -0.00010258 -0.00009521 -0.00001362
264 1 15.992665 33.662748 22.704759 -0.02371582 -0.04843593 -0.00698890 -0.00011642 -0.00002705 0.00002949
265 1 7.105522 0.647986 20.254224 0.01112474 -0.00869646 0.00369787 -0.00002450 -0.00002822 0.00007115
266 1 11.776667 23.738203 32.434969 0.00594905 -0.00723383 -0.01731728 0.00005011 0.00009660 0.00001368
267 1 25.454950 18.722323 4.661780 -0.00871717 0.03140615 -0.00724294 0.00019911 0.00007340 0.00006051
268 1 19.115731 15.737877 10.535651 0.01010893 0.01767639 -0.00949931 0.00007710 -0.00034009 0.00055012
269 1 22.296006 12.771050 1.301456 0.03530734 -0.04952737 0.00648939 0.00013549 0.00014641 -0.00013280
270 1 16.338749 29.925010 21.643026 0.04582338 0.02992291 0.01198165 0.00011190 -0.00002694 0.00013657
271 1 12.302129 22.360649 24.107870 -0.00720308 0.04303453 0.04719449 6.18270408 -18.48424161 -8.11872716
272 1 31.801982 10.703408 9.664791 0.04498382 -0.06746793 0.09092254 73.26053626 -129.14295774 -1.54610540
273 1 1.377882 2.573038 29.829382 -0.00305895 -0.04088740 0.06801032 -0.00004187 -0.00001610 0.00006246
274 1 27.540516 24.565698 5.591454 0.00448630 0.02006203 -0.00002536 0.00012581 -0.00023157 -0.00001441
275 1 5.574569 12.985285 16.048196 0.01572863 0.06040574 -0.03162538 -7.30039777 -8.69049589 18.50702033
276 1 19.729418 29.891263 1.483230 -0.02568616 -0.00225896 -0.01579463 -0.00000687 0.00005187 -0.00005846
277 1 32.511599 12.015512 11.667295 0.00674049 0.03813097 0.01113372 -0.00078835 0.00289368 0.00118746
278 1 19.100828 8.066204 4.168039 0.03457124 -0.00364053 0.02767231 3.82620908 -0.46872764 -7.54549237
279 1 5.564202 16.960228 24.288455 -0.03269539 -0.01408251 0.01713227 0.00006819 -0.00010440 0.00013643
280 1 6.452162 22.741633 13.893463 -0.03908655 0.03213617 0.03208367 0.00009544 0.00005362 0.00026170
281 1 7.285320 28.848522 9.600013 -0.04744052 0.03242295 -0.00917538 -1866.79818474 -36990.99031676 -37422.59854450
282 1 26.566409 13.207887 3.501079 -0.05644649 0.01471567 0.02123141 -0.00004680 0.00001648 0.00001417
283 1 9.113821 22.534860 21.640822 -0.03362557 -0.04080139 0.01317144 -0.00077926 0.00028948 -0.00039580
284 1 8.409684 15.130203 34.275551 -0.03131946 0.00523157 0.01683665 -0.00035278 -0.00003442 0.00043857