ITEM: TIMESTEP
0
ITEM: NUMBER OF ATOMS
2412
ITEM: BOX BOUNDS pp pp pp
0.0 34.114983
0.0 34.114983
0.0 34.114983
ITEM: ATOMS id type x y z vx vy vz fx fy fz
1 1 14.853575 15.062000 7.853545 -0.04718111 -0.01889542 -0.00287561 0.00010008 0.00015620 0.00006705
2 1 6.825848 2.246990 5.658374 -0.01821988 -0.03696490 -0.00478804 0.00009100 0.00003137 -0.00001329
3 1 23.232781 27.233492 5.521645 0.02138653 0.02445753 -0.06059781 -0.00006506 0.00001947 0.00012498
4 1 16.057561 12.644230 9.419495 0.02846044 0.01235787 0.00144255 -42837.03598005 -23248.94943429 -8003.35607215
5 1 13.905117 29.427085 27.042249 0.00615227 0.02223359 -0.02550047 0.00008167 -0.00015374 -0.00005851
6 1 3.628640 24.485484 18.853029 0.02809103 0.03436970 0.03697384 0.00001733 -0.00003741 -0.00003336
7 1 28.117447 12.189579 18.230154 -0.02985274 0.02417122 -0.03620248 0.00013221 0.00007748 0.00002212
8 1 33.235583 25.492619 13.946119 0.01554528 0.01657269 -0.01201458 -0.00014751 -0.00005834 0.00014025
9 1 19.982781 20.993841 30.117761 -0.00299576 0.00462086 -0.03433027 -0.00014568 0.00008432 -0.00003258
10 1 21.726508 2.378624 21.477784 -0.00669191 -0.01769714 0.01370677 -9491.02255718 4166.25520123 -906.67278416
11 1 21.578885 8.321131 1.432811 -0.03241045 0.00053643 0.00391747 -0.00000017 -0.00011541 -0.00013713
12 1 9.994445 6.972206 2.812633 0.04959230 0.01346700 -0.01325771 -0.00006120 -0.00003582 0.00014359
13 1 23.953561 1.493953 10.320582 0.02385059 -0.01961969 0.00622486 -0.00002475 0.00011384 0.00000660
14 1 18.222987 26.307904 26.480703 -0.03859176 -0.00430596 -0.00243783 0.00013915 0.00001526 0.00004520
15 1 20.660418 22.903164 10.307462 0.05696038 0.01272864 0.01348896 -0.00009391 -0.00014122 -0.00001908
16 1 30.753341 10.059448 23.332062 0.03382297 0.04196494 0.01020640 0.00004806 -0.00008235 -0.00016265
17 1 30.574855 32.545320 5.462978 0.01533221 0.00457818 -0.04679368 0.00008867 -0.00011032 -0.00007674
18 1 28.928453 18.344420 12.426568 0.04196902 0.03635301 0.04340337 -0.20266114 0.25052255 -0.53744448
19 1 30.520760 4.563982 3.497737 -0.04658318 0.00304897 0.01621027 -0.00001333 0.00027642 -0.00008990
20 1 17.512111 15.967344 20.087490 -0.03881865 -0.01422008 0.01200879 15177374.70010394 11226301.33911636 -10082208.92448432
21 1 19.317223 28.610876 6.145217 0.01517442 0.02336846 0.00669497 0.00006944 0.00004288 0.00020251
22 1 33.435184 21.348149 26.995003 -0.03359472 0.06487675 0.02788840 -0.00003612 -0.00006424 0.00014117
23 1 19.445239 7.894875 10.131256 0.05540398 0.01437984 0.00222524 0.00013064 -0.00011635 0.00016952
24 1 4.227085 26.587183 30.444119 0.00697406 -0.00305934 -0.00560880 0.00006590 -0.00001392 0.00005811
25 1 4.961187 30.245395 18.280478 -0.04024536 0.00089939 -0.03257715 622.15329390 -461.55413875 -223.88439647
26 1 29.052512 8.302022 31.381833 0.03231422 -0.00400062 0.05096640 0.00012657 0.00007529 -0.00012911
27 1 2.525736 17.487794 31.800212 -0.00359064 -0.04696059 0.00514806 0.00002549 -0.00008049 -0.00010853
28 1 7.634937 5.250496 1.939445 -0.02331024 0.01052081 -0.03656863 0.00014630 -0.00016019 0.00010452
29 1 22.305537 14.199211 31.379081 -0.03324958 -0.00784448 -0.00074950 11878.48412061 -26761.88095475 -16177.93419926
30 1 31.870779 20.665324 32.112253 0.02480823 0.02228443 0.01610400 -0.00009725 -0.00001877 0.00018322
31 1 6.917669 20.829697 20.106627 -0.01847306 0.03728059 -0.00491766 -0.00003158 -0.00002974 0.00002444
32 1 14.133030 3.625134 4.101898 0.02957930 0.04551783 -0.02480830 -0.00016260 -0.00002621 0.00003747
33 1 11.912376 21.996599 17.923044 0.00975308 -0.08169646 -0.02654390 -0.00012173 0.00011475 0.00007648
34 1 20.774042 10.697664 32.610286 0.00687946 -0.00085196 0.00922475 -0.00051848 -0.00160795 0.00048070
35 1 17.286843 5.438034 25.060515 -0.03997207 -0.03981996 0.01836387 0.00005158 0.00002003 -0.00018417
36 1 5.047190 26.817104 6.292387 -0.00379655 0.01747352 -0.03112242 0.00000981 0.00004396 -0.00004346
37 1 33.690118 16.672927 6.727303 0.00867011 0.01125469 0.01605965 -0.00012354 0.00007706 0.00006808
38 1 31.985055 19.808785 32.881493 0.04895346 0.00800236 0.00369963 -0.00007563 0.00005388 -0.00004654
39 1 5.040674 24.590261 5.680217 0.00799450 0.00883123 -0.01799916 75.24648405 29.04509694 35.44656336
40 1 2.515233 13.351596 12.314416 0.01246178 0.01164143 0.02326008 0.00002273 -0.00012405 -0.00019655
41 1 2.349139 11.521557 23.911027 0.08610468 -0.05331544 0.05467710 -0.00018353 -0.00006124 0.00017946
42 1 6.925689 33.630931 16.872197 0.01504566 0.02404282 0.03050915 0.00069660 0.00119907 -0.00045243
43 1 25.313810 30.211985 1.145061 -0.01458888 -0.00034123 -0.06094351 -0.00002713 0.00003359 -0.00013888
44 1 15.940627 18.481771 17.579780 0.05373627 -0.02836380 -0.00730652 5920.67035045 -103211.35111331 108162.36973184
45 1 19.049947 32.610827 11.018181 0.02855459 -0.03913311 -0.00380502 -0.00003872 -0.00002392 0.00008586
46 1 32.770440 32.778309 31.623573 -0.03139721 0.02952428 -0.05405130 -0.00010177 0.00007141 -0.00002200
47 1 31.094957 31.238555 4.378787 0.04428995 -0.02986701 -0.02314608 -0.00016332 0.00003978 0.00013120
48 1 23.499219 4.891342 27.566603 0.04942978 0.01676999 -0.01756439 0.00008236 -0.00016057 0.00001337
49 1 0.613695 0.703482 14.414649 -0.00442367 -0.00217257 0.04143479 -0.00001812 -0.00005330 -0.00008731
50 1 0.924038 29.457806 21.346367 0.06386628 0.00279220 0.03865495 -0.00028447 -0.00009384 0.00027851
51 1 21.486204 27.338964 12.026789 -0.03588890 -0.02574426 -0.05286760 -0.00005702 -0.00008847 0.00001011
52 1 11.857482 29.515061 9.034104 0.00298116 -0.00387316 -0.05679944 -1.28077968 0.11261629 1.18007296
53 1 23.500695 3.113837 15.218928 0.02522788 0.00818161 0.01045940 -0.00007638 0.00013421 0.00001887
54 1 4.929024 33.809650 18.296417 0.03836464 0.06552993 -0.01975238 0.00013775 0.00245895 0.00015832
55 1 6.518994 6.856895 32.380808 -0.01640179 0.03106407 -0.01684246 -2344817.07009376 7847600.39807434 -13296197.07401111
56 1 33.746945 29.733908 17.063859 -0.02627092 0.04474032 0.02021102 -105602.99431578 91953.88656985 -46490.97034208
57 1 22.210067 31.681050 1.181745 0.03569775 0.02725099 0.02673160 0.00016857 -0.00012490 0.00005129
58 1 3.054930 14.946263 0.235140 0.04896859 -0.01187611 -0.00203348 389.21272957 331.09719129 -400.60035755
59 1 3.143322 7.474702 2.953602 0.02480254 -0.00158824 -0.01506754 -0.00015683 0.00010816 0.00009776
60 1 19.885128 17.705955 16.627136 -0.00747388 -0.00714712 0.03954615 0.00183528 -0.00012896 -0.00088540
61 1 30.693531 16.597114 6.480850 0.04905099 -0.00705634 -0.00596659 -0.00006437 -0.00007998 -0.00007393
62 1 31.493220 26.135471 22.023716 0.02535732 0.03647588 0.01552189 -0.00008252 -0.00019210 0.00001316
63 1 28.782098 3.114987 22.932262 0.01143564 -0.00992628 0.03225491 0.00004714 0.00000852 -0.00019992
64 1 17.138467 19.148153 12.384583 -0.00589400 -0.03482087 0.01008004 0.00006469 0.00017489 -0.00023630
65 1 1.418639 22.507779 16.134243 0.02310442 -0.05015966 0.00672787 -0.00012064 -0.00015961 -0.00017216
66 1 26.194351 19.355453 29.461229 -0.03254604 0.02149065 -0.02942725 0.00016182 -0.00007166 0.00006606
67 1 32.548898 0.012688 12.640127 0.01114552 -0.00652613 0.00539999 0.00002469 0.00011711 -0.00016177
68 1 26.923176 7.579602 10.983771 0.02726678 0.00124120 0.00040988 -0.00009444 0.00002758 -0.00014541
69 1 20.780749 15.203898 2.716083 0.02312987 -0.05586279 -0.00318037 0.00002690 -0.00003270 0.00007667
70 1 15.071955 17.112070 17.653454 0.06389320 -0.02688915 0.03336083 32.21261979 50.79523441 -2.73376958
71 1 22.876057 18.528780 2.532197 -0.05966758 0.01074316 0.02298905 0.00011664 0.00001702 0.00012839
72 1 10.424838 15.246385 17.109035 -0.01328814 -0.05616107 0.00932148 -0.00017018 0.00000628 -0.00012468
73 1 26.311573 19.274082 21.405751 -0.01156527 0.02108239 -0.00182886 0.00008524 0.00000100 0.00005892
74 1 5.763603 14.388507 13.466546 0.04838604 0.01555617 -0.00490781 254485.27759316 401524.66454075 175162.31370905
75 1 23.172905 23.196060 14.673972 0.07743349 0.03824032 -0.02765354 13.46955675 3.81443144 3.31187925
76 1 5.963602 29.965108 9.188178 0.01879458 0.01177533 0.04087754 -0.00009886 0.00019555 0.00004517
77 1 30.931069 31.858875 32.535822 0.01719982 -0.02793992 -0.01287209 -164103.79095867 -978889.09636355 1522504.52621835
78 1 9.152660 23.242336 24.253557 0.02001475 -0.02477218 0.01835968 -0.00015394 -0.00006489 -0.00012914
79 1 15.588726 33.022942 23.213939 0.00986866 -0.00920132 0.05004843 -0.00012004 -0.00013207 -0.00012822
80 1 9.062083 17.482702 24.175139 0.04285143 -0.02814053 -0.02571751 -0.00009545 0.00000106 -0.00000198
81 1 30.642310 13.998480 9.800246 -0.02354962 0.05406496 -0.00915559 -0.00000893 -0.00004451 -0.00009879
82 1 19.859738 15.634465 20.793445 0.00101121 -0.02183423 -0.04142869 -0.18587142 0.02634910 -0.05584380
83 1 2.771042 27.080749 30.929339 0.01164861 0.02876671 -0.01702405 -0.00001117 0.00002467 0.00017252
84 1 7.345408 19.032395 13.247375 -0.03623753 0.04415806 -0.03287689 0.00027298 0.00035585 -0.00013632
85 1 23.192767 32.472108 0.469204 -0.03008966 0.02007096 -0.05332736 0.00001920 0.00008558 -0.00010386
86 1 26.538210 2.262610 30.936887 -0.06249497 0.04273491 0.00829662 -0.00014423 0.00013284 -0.00000555
87 1 0.396302 0.528463 30.308585 -0.02431495 0.00952214 0.04267237 0.00030719 0.00021711 -0.00027894
88 1 16.720094 4.556344 28.322059 -0.01762990 -0.02910082 0.07021196 -0.00002673 0.00027481 0.00003864
89 1 13.263836 30.137923 13.006959 0.04957632 0.03216535 -0.00392622 9382.32838217 253335.10377269 171251.51430869
90 1 5.084532 13.566882 3.753520 -0.02880573 -0.03001286 0.04748160 0.00054959 -0.00040909 0.00090066
91 1 17.853382 22.681060 19.583654 0.00382785 0.07340713 -0.04509359 0.00000238 0.00040506 0.00022157
92 1 4.951787 13.687581 3.337016 0.00712922 0.01980199 -0.00645423 -55.66452147 -43.74159881 -45.45210230
93 1 21.507489 7.925402 33.330369 0.02681127 0.03242337 -0.03773702 -0.00003242 0.00003886 0.00001450
94 1 11.267238 6.545405 26.897274 -0.05489369 -0.04528485 0.00251297 0.00001656 -0.00009808 -0.00006528
95 1 2.065030 29.582384 20.124097 0.00547198 -0.00579767 0.04482039 -0.00089102 -0.00051390 0.00267365
96 1 30.471699 18.650941 17.763044 -0.03318928 -0.02061166 -0.02758646 0.00002343 0.00013477 0.00020173
97 1 8.240121 16.297383 33.103183 0.00231954 0.00798433 -0.00817599 -36635.00538731 718.13175851 6645.86169182
98 1 15.796250 7.552281 22.442195 -0.00662201 -0.00519592 0.00049725 0.00004293 0.00018277 -0.00006236
99 1 24.535967 33.066974 15.460831 -0.01323210 0.06482319 -0.06206149 -0.00007630 -0.00009165 0.00013980
100 1 22.166208 33.224496 24.129407 0.00836562 0.00519692 -0.01484799 -16061917.57438818 2391913.67949419 -20072702.58672570
101 1 15.939037 10.537102 16.869237 -0.00992667 0.02467901 -0.04596936 -0.00018249 -0.00002559 0.00011126
102 1 15.384606 30.079525 32.580278 -0.01427619 0.00378315 0.02757956 0.00009814 -0.00011141 -0.00017910
103 1 22.688616 20.005536 10.059762 0.00817403 0.06525223 -0.00303553 -0.00000960 -0.00017154 -0.00023553
104 1 13.622177 27.003036 15.038926 0.03707049 -0.00066724 -0.03217489 0.00007645 -0.00172643 0.00131845
105 1 2.971455 24.896164 18.404347 0.01145530 0.02236781 0.06182025 -0.00003058 -0.00009422 0.00004436
106 1 2.383714 2.790594 1.537115 -0.00833922 -0.05251601 0.08184728 1.16263940 0.85457711 4.53807992
107 1 33.858035 30.009072 33.089577 0.02323783 -0.00284071 -0.00740093 0.00222508 -0.00149250 0.00034210
108 1 24.238392 3.733007 34.098203 0.02057681 -0.05740481 -0.01443375 -0.00014252 -0.00000179 0.00002535
109 1 27.674471 30.206484 22.667969 0.05906965 -0.01405082 0.04458609 0.00004497 0.00006732 -0.00021206
110 1 6.566617 12.469414 13.351728 0.00172159 -0.01888565 -0.00424242 -0.84598476 2.02178577 0.12099531
111 1 4.178970 28.567713 3.246374 0.00195908 -0.04531980 0.01161481 -115622.65768686 1390340.65858330 418135.95322412
112 1 31.854653 30.482742 9.676177 -0.00715277 0.03758259 0.02215530 0.00008836 0.00008634 0.00003124
113 1 1.248742 12.567521 32.428783 -0.03919753 -0.00026368 -0.00978447 -0.00139061 -0.00170032 -0.00154271
114 1 1.858283 32.348618 33.153464 -0.03593938 0.02876618 -0.03817963 0.00008981 -0.00012397 -0.00020785
115 1 9.169591 25.384520 2.463786 -0.00375405 0.05420809 -0.03401523 0.00055186 -0.00004443 -0.00016371
116 1 22.339803 20.378828 3.471361 -0.04457123 -0.03024348 -0.06149604 0.00008860 -0.00008031 -0.00002499
117 1 4.164776 18.123667 10.406499 0.03211065 -0.00645650 -0.03279566 -0.00017267 0.00027199 -0.00014696
118 1 25.775884 19.474846 5.726960 0.00080607 -0.05656265 -0.02822942 4.97587605 1.92715742 -4.26980931
119 1 4.917317 28.857069 31.936206 0.01804152 0.03495123 -0.04793729 4.98241181 -5.33775313 0.88854706
120 1 19.472568 25.923633 33.256570 0.06074859 -0.04752761 0.02722354 0.00000091 -0.00012407 0.00002962
121 1 25.152713 4.439991 19.494114 -0.02831750 0.03504078 0.02014929 0.00075453 0.00043459 -0.00048382
122 1 26.894356 12.700809 8.949794 -0.00843941 0.00733345 -0.06924253 0.00004867 -0.00020049 0.00005922
123 1 1.115953 8.503632 28.374760 -0.01830144 0.02015032 0.00003565 -0.00007438 -0.00008013 -0.00003048
124 1 0.700490 6.881801 17.836531 -0.00205522 0.00018916 0.00401411 0.00010460 -0.00013832 -0.00003932
125 1 29.336176 30.713289 9.745403 0.03742862 -0.02622635 0.00610266 -0.00010167 -0.00012557 0.00008499
126 1 14.151340 9.956478 22.377182 -0.00385966 0.01605211 0.03176075 0.00003093 0.00009374 -0.00019951
127 1 16.663720 24.506359 32.101143 -0.00317697 0.01323275 -0.00106634 -40127.17578706 20997.89819043 6815.93447926
128 1 20.695321 25.290792 24.007167 -0.01792789 -0.00390138 0.02338327 0.00011404 0.00012905 0.00018871
129 1 29.436825 2.295442 31.378754 0.00210146 0.03505661 0.01246390 -0.00006904 0.00029521 -0.00013023
130 1 13.311949 16.232793 26.852179 0.02890635 -0.05314747 0.04185217 0.00013841 0.00004197 0.00017906
131 1 5.374996 22.456292 20.400001 0.06887018 -0.00250765 0.01423754 -0.00001075 0.00010629 0.00001441
132 1 27.673855 28.865588 8.159546 0.05507276 0.01144803 0.00746942 -0.97379489 -23.74799236 -50.92719808
133 1 15.955753 1.177991 21.267575 -0.03060835 -0.00580879 -0.03914051 -0.00010332 0.00000528 0.00001569
134 1 18.170248 7.585292 5.182869 -0.02568035 0.02817107 0.00378380 -0.00005020 -0.00015586 -0.00000442
135 1 17.023649 6.709748 29.587211 -0.00570776 0.02452070 0.07538018 -0.00015619 0.00007408 -0.00005375
136 1 12.010870 32.199104 30.833550 -0.02236097 0.01817892 0.00502124 -2215.44743572 -9068.90174923 17791.32996860
137 1 29.092213 4.042618 4.505476 0.06208863 -0.03030245 0.00749815 -29.76809019 132.10582769 241.04169344
138 1 4.637341 20.101288 13.984037 -0.01847399 -0.02159972 0.00472617 -0.00008441 0.00026338 -0.00018206
139 1 15.269850 12.118493 13.198273 -0.02341985 -0.02148950 0.03771211 -0.00030337 -0.00028351 0.00169054
140 1 9.441647 28.191816 26.396156 -0.05645881 0.04690653 0.00263709 -0.00000634 -0.00000656 0.00007959
141 1 31.970322 19.894007 32.770016 0.02598693 0.02025284 -0.04827654 -0.00000948 -0.00012199 -0.00012120
142 1 32.575853 2.721835 3.688961 -0.04625627 0.01587994 -0.05312809 30494.25794345 -103022.08939814 117449.85841734
143 1 24.867625 18.045205 32.316091 0.03635249 0.02316122 0.03598018 0.00038136 0.00063050 -0.00003400
144 1 27.008454 29.444757 28.435101 0.00418639 0.01294314 0.02816358 -0.00012940 0.00004078 -0.00003587
145 1 32.869030 2.115909 18.058030 -0.02560532 0.02710752 -0.06954661 -0.00000304 0.00008613 0.00004336
146 1 18.218849 18.120555 5.491912 0.02052342 -0.00951772 0.02941594 -0.00004402 -0.00001176 -0.00004317
147 1 1.990743 3.869660 28.028070 -0.02242162 -0.04912083 0.03674960 -0.00010885 0.00001571 -0.00007423
148 1 31.673581 8.337060 17.032408 0.00401203 -0.00674722 -0.00084571 -0.00007715 -0.00003181 0.00002143
149 1 10.759831 25.872528 23.376359 0.01063802 -0.00782936 -0.02784140 -0.00007283 -0.00002437 -0.00013012
150 1 26.259967 32.584346 20.247585 -0.00580841 0.01601654 0.04313003 -625.74994931 -42.50446591 -349.18310379
151 1 13.982642 17.169569 30.147375 -0.00669875 0.02156282 0.03351706 232.35606402 -168.39162311 129.10688885
152 1 33.834019 17.232370 22.162604 0.00438126 0.01359910 0.01281842 0.00012522 0.00001588 -0.00005426
153 1 9.852223 22.131314 30.582914 -0.05606611 -0.00055301 -0.03031895 -0.00022345 0.00005133 -0.00013798
154 1 6.053793 10.691313 14.534017 0.02807977 0.02893731 -0.04741554 0.00035143 -0.00208784 0.00060674
155 1 16.723910 6.928140 27.992157 0.00030101 -0.02340727 0.01206992 -0.00018861 0.00006129 -0.00003073
156 1 28.752732 8.126989 30.528123 0.00021847 -0.01865429 0.07118760 -0.00003775 -0.00005870 -0.00008028
157 1 1.352043 21.575069 11.981877 0.03608022 -0.01928309 0.02706725 0.00001294 0.00012907 0.00010459
158 1 23.899397 13.886230 32.547681 0.04584131 -0.00558912 -0.01605377 2.92903560 -13.15871279 -16.32173398
159 1 3.004096 20.322395 18.754420 -0.04204140 -0.00271133 0.03516067 -8079.91393583 -3935.81977751 15299.39925220
160 1 11.218504 18.704270 21.152094 0.00195445 0.00545763 0.01024315 -0.00032734 0.00007092 0.00009926
161 1 20.564800 13.170129 2.394235 0.05912076 -0.03626130 -0.05227763 -0.00041678 -0.00011366 0.00042425
162 1 16.257597 29.337844 2.823472 0.01930836 0.01496074 -0.07805754 -0.00008091 -0.00001750 0.00008872
163 1 17.477163 20.967160 17.292989 0.07914393 0.00301853 -0.02029305 -0.00481971 -0.00772916 0.00095781
164 1 26.980103 19.464691 20.302619 0.03422417 0.00672477 -0.05052128 -0.00000379 -0.00019856 0.00010262
165 1 20.434531 34.024384 9.074869 0.00729226 -0.04522591 -0.01632611 0.00000524 -0.00016337 0.00004920
166 1 3.762667 0.482242 3.932780 -0.02348536 0.00107726 0.00980084 -17007.47344884 28020.62034299 28451.80231126
167 1 17.506614 22.580991 26.441822 0.02803976 -0.04445855 -0.05400698 -3553.08892920 -434.65733458 2928.67653228
168 1 11.756571 18.503376 6.507262 0.04132608 -0.03010428 -0.05477641 -0.00010297 -0.00012040 0.00008172
169 1 26.153510 25.623823 33.681824 -0.02001540 -0.07002886 0.00367558 -0.00010862 -0.00002959 -0.00009212
170 1 18.239985 23.112169 16.927690 -0.03971852 0.01964372 -0.03335789 0.00000633 0.00036654 0.00025231
171 1 20.131290 29.892326 32.599457 -0.05893158 -0.01884246 0.05288296 -0.50127780 0.05833679 -0.59710861
172 1 20.075968 14.414164 23.143307 0.02128285 -0.02929795 -0.02820291 0.00071676 -0.00033963 0.00081881
173 1 30.859094 21.291416 30.152918 -0.00238051 -0.03804929 0.00798219 0.00004422 0.00013073 0.00001109
174 1 3.299511 30.824390 2.068424 0.02496826 -0.03616038 0.03917244 0.01679995 -0.04407154 0.02240204
175 1 21.834857 21.743176 5.405013 -0.01577423 -0.00141760 -0.00093628 1.89457652 0.42969308 -9.47415282
176 1 30.266166 33.897797 33.178425 0.02161981 0.02248186 -0.02861110 0.24302029 -0.74597792 -0.23525358
177 1 24.311033 9.774645 11.426799 -0.02744211 -0.00497232 0.00348746 -0.00004419 0.00010820 0.00000103
178 1 19.850666 29.853165 27.925250 -0.00936824 0.04022491 -0.00099242 -0.00012429 -0.00021895 -0.00059841
179 1 28.415300 6.652096 8.737333 -0.00734165 0.01088099 0.02007386 -0.00003882 0.00017570 0.00021976
180 1 11.036084 3.878621 28.145047 -0.03867934 0.01185086 -0.02010380 0.00010267 -0.00005932 0.00011405
181 1 18.234298 21.043139 3.253952 0.01579195 0.02575184 -0.04087522 -0.00086134 -0.00038865 -0.00067696
182 1 8.857672 15.046645 31.991161 0.01256404 0.00341264 0.01371470 -6.03882445 12.23082332 10.87421403
183 1 14.145296 24.001866 24.155176 -0.00439391 0.02473811 -0.00592924 -0.00065052 0.00026432 -0.00056299
184 1 20.728578 21.217592 17.282296 0.05179251 -0.00474349 0.00490013 -0.00081607 -0.00059883 0.00101619
185 1 32.480708 13.471177 12.049615 -0.02332965 0.05143205 0.02854797 0.00019081 -0.00014171 -0.00004136
186 1 30.792822 30.859651 25.698817 -0.00359284 0.04307661 0.01095908 0.00003590 0.00003615 0.00004897
187 1 33.665191 17.120147 23.643877 0.02586020 0.00235025 0.03426794 -0.00004908 0.00002302 0.00002478
188 1 14.316390 30.226233 4.437111 0.01196797 -0.00308596 0.03853603 0.00013964 -0.00002381 -0.00026767
189 1 4.765114 5.559085 3.635363 0.00404784 -0.04245013 0.01358291 0.00071548 0.00121001 0.00069024
190 1 24.122896 13.486878 19.790476 -0.00430924 -0.05741790 -0.02360257 0.00015138 0.00004333 -0.00000867
191 1 27.655953 28.189446 6.677551 0.01489873 0.07103406 -0.01277421 0.63327161 23.91763956 52.42368243
192 1 14.736645 31.767272 17.327016 0.00648006 0.01319565 -0.01137379 0.00009917 0.00031634 0.00027642
193 1 3.786366 31.561676 17.462319 -0.00658224 0.02833151 -0.06982673 91.49639574 -332.56876948 -180.91678282
194 1 2.533730 30.054381 15.000979 0.02403940 -0.02439868 -0.00641182 0.00113233 0.00022047 -0.00261458
195 1 8.675654 20.069735 2.052855 0.01485154 -0.00226953 0.00153268 -0.00007248 0.00035741 0.00022161
196 1 27.515445 14.919474 22.259710 -0.04148953 0.03350877 -0.03578082 -0.00007719 -0.00005758 -0.00006347
197 1 24.431781 29.757341 29.511077 -0.00803340 -0.00996962 -0.02644736 0.00032570 -0.00005521 -0.00020217
198 1 3.948986 26.865506 23.351733 0.05812048 0.01000338 -0.06307447 86.17339143 1681.71007736 -267.25378101
199 1 3.358561 0.802050 28.072628 0.07218737 0.00815743 0.02951772 0.00000899 0.00003484 -0.00002513
200 1 24.788746 6.211665 11.909565 -0.02936821 -0.00185260 -0.00693386 -0.00012410 -0.00005784 -0.00003107
201 1 20.995959 3.551292 29.696669 -0.00116213 -0.01984286 -0.03971617 -0.00013888 0.00005288 0.00002303
202 1 32.510352 13.672484 7.378921 0.01323116 0.02148206 -0.01804384 -0.00012811 -0.00014978 -0.00003266
203 1 15.257676 16.494203 30.154447 -0.01053784 -0.00381753 -0.00411743 -249.17414487 131.98388159 -1.38182000
204 1 27.074849 26.200253 32.994571 -0.01186841 -0.02405478 -0.00538926 0.00010649 -0.00018526 0.00009374
205 1 2.412495 11.183943 32.977178 -0.01731312 0.00464667 -0.02281568 -0.00038346 -0.00141634 -0.00069798
206 1 16.233949 21.146217 32.854147 -0.00449459 -0.00460384 0.00473195 -0.00014373 -0.00231733 0.00073204
207 1 8.245604 30.297285 10.732880 0.00738638 -0.03669712 0.00103575 -82984314.02815709 -141058293.08304116 -96733987.70617628
208 1 3.951972 16.326221 12.756740 0.03155656 0.05547189 -0.02662832 0.02434493 -0.02596450 0.00932384
209 1 1.170896 29.490528 15.173083 0.00906985 0.03328173 -0.00949946 -0.14312989 0.02172806 0.17356125
210 1 12.228777 4.727171 33.648633 -0.07173863 -0.04428458 0.00495359 0.00004732 0.00004534 0.00012096
211 1 17.044283 23.891769 6.058226 -0.04121793 0.00459596 -0.01088937 -0.00023900 0.00015223 -0.00003897
212 1 8.284478 21.406228 32.469442 -0.01846659 0.01785688 0.03628749 -0.00008314 0.00027413 -0.00010268
213 1 19.247314 8.778956 30.470555 -0.03982111 0.04891070 -0.02908859 -0.00001496 -0.00029323 -0.00009470
214 1 33.165321 3.468500 7.088775 -0.02083801 0.00247040 0.00433625 0.00063849 0.00046540 0.00283834
215 1 32.302707 33.642602 11.433986 0.02328222 -0.02481271 -0.02442738 0.00022684 0.00002938 -0.00003019
216 1 20.083539 26.352672 22.392736 -0.02374847 0.01526663 -0.02687888 0.00015131 0.00014859 -0.00010246
217 1 26.884458 7.222926 23.019912 0.01713426 0.00146119 -0.00291780 -0.00001983 0.00009242 -0.00005862
218 1 14.135053 11.399047 31.553019 0.00114108 0.07241039 0.00450122 -0.00006741 -0.00026666 0.00007017
219 1 32.431710 30.284248 29.668134 0.03634300 -0.00329697 0.02460705 0.00107459 -0.00112156 -0.00197344
220 1 4.169651 9.991596 26.787076 0.04896294 0.03537532 0.00816443 0.00004761 -0.00013712 -0.00013186
221 1 24.924575 33.414107 2.972894 0.00440737 0.02920890 0.04309897 5728174.98436301 1262802.69190445 -1027478.72501900
222 1 31.924194 0.753059 23.907169 -0.01442951 -0.04180582 0.01608144 0.00005214 -0.00006058 -0.00004554
223 1 18.093476 22.035877 8.389111 -0.04059808 0.01867118 -0.01864084 -0.00040347 -0.00007146 0.00033164
224 1 16.158221 12.691422 4.647588 -0.02260728 -0.00510253 -0.00950294 -0.00008569 0.00024403 -0.00053677
225 1 16.530146 12.552297 16.654586 0.02309482 -0.03042466 -0.00372917 -0.00015700 -0.00051644 -0.00006089
226 1 25.351510 17.919497 19.228699 -0.01612118 -0.00812457 -0.02940909 -0.00003043 -0.00010781 0.00015238
227 1 30.256099 15.472262 24.081365 0.00054230 -0.01134442 0.00015386 -1288.33578128 45.46009166 -1027.41933176
228 1 11.255875 26.010042 26.146380 0.01581786 0.00607155 -0.01828809 0.00009495 0.00003416 0.00002476
229 1 5.178388 10.271636 10.341230 -0.04093426 -0.06295941 0.08877949 0.00007167 -0.00022895 -0.00025414
230 1 12.087921 31.332480 3.531091 0.00146810 -0.01735417 0.02105770 -0.00000369 0.00005923 0.00017936
231 1 18.233082 22.095471 3.730446 -0.03600770 -0.00354558 0.02603480 -0.00139752 0.00005127 -0.00066789
232 1 10.155499 9.418323 29.129298 0.00625029 -0.06124385 0.04146719 0.00021023 0.00002198 -0.00018222
233 1 12.518036 4.641255 8.134354 0.04646398 -0.00572606 0.07874332 -0.00028997 0.00021550 -0.00005869
234 1 25.748713 4.240402 11.970724 0.01241186 0.01731273 0.03221765 -0.00001977 -0.00007371 -0.00006789
235 1 28.897869 26.512976 22.629257 -0.02899498 0.01258034 0.00091198 0.00024280 -0.00014120 0.00012891
236 1 5.881156 28.589942 20.406899 0.00582896 -0.00730980 0.02540730 -0.00460971 0.01119809 -0.01488856
237 1 17.163275 19.055537 6.118778 -0.01023683 -0.02975649 -0.01589148 -0.00022262 -0.00013227 0.00010301
238 1 33.070292 32.248112 3.422703 0.03489813 -0.01744453 -0.00514911 -0.00002711 -0.00084691 0.00024123
239 1 7.248496 22.686477 11.487840 0.01661366 0.02612252 -0.02705143 0.00021440 -0.00005063 0.00023035
240 1 8.593667 33.960177 19.380414 0.00820340 0.04529889 0.02701145 0.00040046 0.00041376 0.00037463
241 1 26.535428 33.031472 4.536404 0.01365960 0.01927626 0.05710990 268.29246218 249.05545241 -58.93591411
242 1 5.501744 8.712473 11.369078 -0.00965580 0.00289433 0.01253941 5.62047275 1.69197277 -0.90188058
243 1 18.546489 20.929893 25.629113 -0.02211988 0.04128063 0.05280921 -0.88769859 1.40957688 0.69374062
244 1 21.878936 11.082637 13.274261 0.01098528 0.00875633 0.01971517 -14.07847160 20.00386417 20.73527676
245 1 22.334165 21.370643 0.898310 0.04081346 0.00797480 -0.05381430 -0.00009991 -0.00027041 -0.00066667
246 1 33.290121 21.773090 3.841532 0.01188184 0.01883554 -0.02245419 0.00011748 -0.00017242 -0.00000822
247 1 18.503081 10.806084 2.060643 -0.03895351 -0.08140346 -0.00349941 -0.00004971 -0.00012429 0.00007646
248 1 7.247618 16.349222 17.133189 0.02445885 -0.10329801 -0.03084692 0.00043544 0.00022845 0.00072314
249 1 4.511441 16.208687 13.481789 -0.00892674 -0.03207102 -0.00640260 13.54439593 -9.73362907 3.03132150
250 1 31.887910 27.178849 5.896680 0.03383783 -0.02859397 0.01547927 -960.89269192 -1577.79243875 468.82831018
251 1 6.676963 21.703150 19.676060 -0.00295454 -0.03408133 0.01527936 0.00147081 0.00050492 0.00038457
252 1 14.872448 0.336867 17.929240 -0.00871606 -0.00456885 -0.04267258 0.00000174 0.00008418 -0.00012652
253 1 19.954035 2.661106 27.251620 -0.01396035 -0.01839604 0.01600580 0.00003074 0.00021562 0.00034002
254 1 7.963876 12.726808 26.794675 -0.02157420 0.02344451 0.02743683 0.00012397 -0.00018417 0.00008495
255 1 31.454356 2.953534 1.161014 -0.03932384 0.02826143 -0.01712188 0.01257027 -0.00268991 0.02670762
256 1 26.615293 27.173437 33.241553 0.02683294 0.02246566 -0.00571076 -0.00005185 -0.00010077 0.00003274
257 1 25.895234 20.437446 16.313447 0.03044135 -0.03287381 -0.04038736 0.00051297 -0.00069841 0.00054144
258 1 29.798288 21.679806 19.592856 -0.00689512 0.02860147 -0.00493800 -0.00005253 -0.00007704 -0.00005416
259 1 19.011447 9.674054 7.095458 -0.02144345 0.00445948 0.01487007 -364.86017320 -133.76975477 222.16989935
260 1 22.937608 7.839169 31.691504 -0.03707031 -0.01264854 0.02883057 -0.00001925 -0.00032010 -0.00018452
261 1 16.095612 30.907497 26.041440 0.05223002 -0.00734652 0.00435897 -0.00005153 0.00000644 -0.00000037
262 1 7.745627 14.866558 6.991721 -0.05088503 -0.05015708 -0.00083850 0.00039296 0.00007991 0.00023047
263 1 31.397848 10.313807 26.341343 -0.01660523 -0.00695134 0.00579071 0.00012616 -0.00031627 -0.00008938
264 1 33.618317 31.828807 7.535384 0.02149012 -0.02324792 -0.04449199 0.00019697 0.00020574 0.00012047
265 1 10.773083 25.780582 24.493432 0.02533970 0.04197740 0.02981753 0.00007643 -0.00011188 -0.00022280
266 1 31.342053 13.263896 26.857638 0.00647706 0.00542634 0.02434641 0.00083202 -0.00131739 0.00173883
267 1 17.505831 14.816448 32.665771 -0.00358940 -0.01387620 0.01914392 -0.00021637 -0.00009495 0.00033410
268 1 14.913956 7.140380 16.587665 0.02736896 -0.02834507 -0.02358789 0.00006294 -0.00006689 -0.00010702
269 1 23.021804 20.589228 21.122731 -0.01344001 0.01621793 0.01353057 -134.53193506 19.44464420 -99.16843753
270 1 24.747042 16.785434 24.501947 0.00292747 -0.02030632 -0.01590011 -0.00004643 -0.00046372 0.00024592
271 1 1.772417 13.678262 2.987772 0.03589554 0.03179299 0.01499347 -0.00180915 -0.00081451 0.00154421
272 1 11.410569 18.518144 30.398507 0.00190313 -0.01653327 -0.02587725 0.01005861 -0.00513261 -0.00110725
273 1 14.653965 2.476858 21.497341 -0.04663997 0.01417060 -0.00965316 -0.00002237 0.00007198 0.00007486
274 1 24.406173 15.908222 11.912242 0.02067664 -0.01395521 0.06446878 -0.00007296 -0.00003399 -0.00012853
275 1 16.568731 1.278772 30.848840 0.03363907 -0.02260524 0.00909313 -148.23617362 38.46860623 -89.05655484
276 1 23.325639 28.909851 6.348464 0.01903300 0.00267063 -0.05440199 -0.00070630 -0.00028210 -0.00001281
277 1 14.255028 0.506502 17.364654 0.01091195 -0.01869810 0.02256832 0.00009123 0.00018439 -0.00004096
278 1 18.577272 11.571811 9.603204 -0.00937025 -0.00856582 0.03968546 -0.03445101 0.01480543 -0.00240262
279 1 22.332821 0.668007 10.547870 -0.00470078 0.02195313 0.01717624 0.00007075 -0.00001427 0.00010037
280 1 22.630616 33.901781 14.709142 0.01136640 0.03134690 0.00893034 -0.00010016 -0.00023805 -0.00015377
281 1 31.977880 10.509081 24.285173 -0.04274295 0.00435676 -0.01539266 0.00012636 -0.00028842 0.00014335
282 1 24.437213 8.119698 16.632931 -0.04963585 0.05510026 0.00590571 0.00033103 -0.00022488 0.00036365
283 1 26.696460 30.877586 26.662458 -0.00316950 0.00679210 0.00575496 0.00012928 0.00002027 0.00012158