ITEM: TIMESTEP
0
ITEM: NUMBER OF ATOMS
4894
ITEM: BOX BOUNDS pp pp pp
0.0 42.814966
0.0 42.814966
0.0 42.814966
ITEM: ATOMS id type x y z vx vy vz fx fy fz
1 1 15.033042 17.869579 16.039442 -0.03753240 0.00999988 0.03738958 0.00004268 -0.00010988 -0.00007340
2 1 5.625324 8.373403 12.935422 -0.02456240 0.05471685 -0.00970996 0.00005995 -0.00005595 -0.00012486
3 1 33.208307 3.435275 26.690701 -0.00002742 -0.02789796 0.00708224 -0.00004194 -0.00009805 -0.00028701
4 1 17.600172 36.014676 28.080237 -0.01219862 0.04725776 -0.01840897 4545.21444833 -526.41852000 4633.66216749
5 1 29.598179 28.020209 10.863840 -0.00057066 0.04238011 -0.00182987 0.00003258 0.00016999 -0.00003189
6 1 7.484006 35.896608 41.345530 0.01176201 -0.01512866 0.03395982 0.00007961 -0.00015079 -0.00002639
7 1 25.184529 4.466618 31.297231 -0.02358899 0.00758121 -0.02392321 0.00019629 0.00003804 0.00009846
8 1 0.383144 6.213616 29.893962 -0.00287720 -0.02256736 0.04877190 0.00010608 -0.00013202 0.00006161
9 1 9.601063 5.882419 33.420878 -0.03289538 -0.04718148 0.01384614 0.00002868 0.00000466 0.00015660
10 1 38.346148 21.943720 25.954768 0.00341555 -0.02872518 -0.02979841 0.00013648 -0.00006025 -0.00005582
11 1 39.569538 30.429983 19.863833 0.04477861 0.02417526 0.02434912 0.00014728 -0.00004612 -0.00011369
12 1 39.507032 21.476651 24.645920 0.01772108 0.03307553 0.01263050 -0.00001778 -0.00020241 0.00004190
13 1 35.864570 15.339429 2.730171 0.01332404 -0.01296055 0.02894697 -0.00013705 -0.00015671 -0.00001300
14 1 32.601077 5.181888 2.844430 0.03008962 -0.02180677 0.00087089 0.00014239 -0.00009641 -0.00021995
15 1 6.208002 31.192971 29.604366 0.02277740 -0.00686779 -0.01034021 0.00012453 -0.00000260 0.00013025
16 1 29.673026 39.200114 30.950254 -0.05353051 0.03912844 -0.04616682 -81.09602980 -449.66488408 -141.35059874
17 1 19.821341 3.335943 34.116458 -0.03209711 -0.01687815 -0.03516088 0.00015278 0.00004314 -0.00003486
18 1 22.270297 28.415960 28.720039 0.00528655 -0.00251503 -0.02877862 0.00009647 -0.00004219 0.00008650
19 1 2.110568 15.652119 27.355928 0.01497447 -0.01523716 0.01104468 3.91951582 -8.37492312 14.10321594
20 1 40.601090 7.814651 35.197364 0.00167276 -0.00193671 -0.00812677 0.00014389 -0.00003137 0.00000213
21 1 14.751882 7.493751 42.478473 0.00536861 0.04863773 0.00592972 -0.00004343 -0.00002816 -0.00002425
22 1 34.335713 39.803524 36.645633 -0.01487892 -0.02978936 0.01844591 0.00000724 -0.00009795 0.00006369
23 1 32.086645 17.232616 8.282451 0.02243340 0.01304035 -0.05355144 0.00000728 0.00004172 -0.00005803
24 1 34.181358 36.244747 42.005462 -0.03486194 -0.00664825 0.00133703 0.00007462 -0.00006192 -0.00013650
25 1 20.940254 16.065103 18.877985 -0.03132685 -0.03341860 -0.01561296 -0.00012213 0.00004274 -0.00002194
26 1 34.027433 19.946752 20.873949 -0.00479053 0.00955310 -0.00511578 0.00008769 -0.00006219 -0.00009254
27 1 12.509662 22.070706 32.399234 -0.01215462 -0.01960503 -0.02643700 -0.00007004 -0.00003074 -0.00001930
28 1 15.357380 32.506112 29.960596 0.01106287 -0.01757410 0.02633431 -0.00031736 -0.00037665 0.00013238
29 1 19.193960 29.144249 18.933910 0.01858971 -0.02439790 -0.02261029 -0.00001486 0.00009073 -0.00004888
30 1 34.163551 8.846676 0.782790 -0.00982862 0.01184642 0.01768604 0.00014059 0.00004234 -0.00003835
31 1 0.277352 1.805446 22.495920 -0.01286391 -0.00808138 0.01696193 -0.00004366 0.00002842 0.00005385
32 1 37.924216 37.433256 37.566593 -0.01851469 -0.02856874 0.03652713 -0.00009372 0.00002163 -0.00006499
33 1 13.957395 7.645279 31.180617 -0.01610073 -0.00217313 0.03295299 0.00017716 0.00001892 -0.00011170
34 1 21.052380 5.533060 37.586571 -0.04963892 0.01624069 0.00019751 0.00012088 0.00016175 0.00016372
35 1 14.734499 13.237355 39.289610 -0.01071486 -0.04356655 0.02726843 97.25324509 -206.18846722 112.12089217
36 1 0.553027 42.173804 11.318094 -0.01366912 0.03164932 0.08668483 -0.00009466 0.00010682 0.00000410
37 1 42.371238 19.395885 32.277349 0.00337083 0.00035356 0.03363112 0.00012012 0.00012372 0.00001521
38 1 27.245540 32.972266 14.205744 0.04299821 0.01263694 0.03936730 -0.00003248 -0.00005476 -0.00002544
39 1 0.629006 30.459684 24.873825 -0.02065879 0.01467138 -0.02142737 -186.28438237 262.66653195 -282.19273201
40 1 13.280167 8.094826 29.052425 -0.02294716 0.00556786 0.01920889 0.00008709 0.00003273 -0.00005884
41 1 28.723578 37.134817 3.436643 0.01804754 0.00433523 0.02041720 0.00000411 0.00007753 -0.00007127
42 1 41.456431 27.770803 20.096436 0.00409323 -0.04367545 0.01127997 -2.51910458 52.19505964 -164.65400379
43 1 5.884369 8.052105 25.570904 -0.03444830 -0.04450095 0.00145403 -516.34494114 -84.06482970 -992.29457314
44 1 19.063523 13.265177 21.889437 -0.00948604 0.01671993 0.08616760 -0.00025437 -0.00008065 -0.00006844
45 1 7.235716 31.284546 18.788829 0.00358256 0.08617759 -0.01227599 0.00001188 0.00006106 -0.00008278
46 1 26.128168 21.187541 30.427859 -0.01544798 0.02192745 -0.02863923 0.00008457 0.00000806 -0.00010964
47 1 27.428536 10.648102 40.059082 -0.00720409 -0.01211933 -0.02361973 -0.00003351 0.00001694 0.00013966
48 1 3.533674 8.837210 13.094877 0.01375890 -0.01752880 -0.02161815 0.00003283 0.00016004 -0.00016240
49 1 10.802483 28.105263 6.553536 -0.01116777 0.01609388 0.02831714 0.00008821 -0.00000817 -0.00021861
50 1 4.066184 23.374101 16.622610 0.00441774 0.01859750 -0.02607258 -0.00024613 0.00001593 0.00002500
51 1 38.917628 8.177678 23.083078 0.03464491 0.00370741 0.02323229 -0.00008525 0.00020201 -0.00000216
52 1 12.818262 41.954953 41.072452 -0.00036104 -0.00762911 0.04699643 0.00007201 0.00001907 0.00003846
53 1 10.217388 42.605930 6.994255 0.05846520 -0.01853126 0.00752583 -123.95887286 -126.39249364 189.30681730
54 1 17.978633 41.825765 5.056910 0.05613544 0.02431033 -0.04018915 -0.00014978 0.00004712 -0.00018484
55 1 16.109562 34.951795 20.250771 -0.03707804 -0.02547706 -0.01105038 0.00007014 0.00016636 -0.00017039
56 1 20.905182 13.247946 0.078214 0.00439787 -0.06887234 -0.00620426 0.00005064 -0.00003902 0.00008419
57 1 19.793963 22.228971 41.405686 0.02125631 -0.05052592 0.01904479 -0.00008048 0.00008690 0.00005123
58 1 31.137738 14.709539 25.220288 0.00540782 -0.00252585 -0.01369010 0.00007805 -0.00006880 -0.00013002
59 1 9.510135 0.386184 30.053101 0.03053277 -0.00709018 0.02490798 0.00003975 0.00015051 0.00008544
60 1 24.165353 38.225614 37.554777 -0.01005900 -0.02878588 0.02451154 0.00004459 -0.00010698 -0.00008302
61 1 7.921165 27.700567 35.179366 -0.01352279 -0.02100416 0.00376433 -0.00011175 0.00000469 -0.00002054
62 1 0.029723 5.116454 41.172642 -0.02897803 -0.00720849 -0.02635593 -0.00008676 0.00012102 -0.00001900
63 1 24.727081 3.939032 23.770188 0.01005743 0.02193422 0.00379976 0.00027486 -0.00001808 -0.00005905
64 1 25.260419 19.512749 21.723034 0.00873178 0.03571343 -0.00324766 0.00014148 0.00001730 -0.00001492
65 1 29.890714 38.499534 16.563104 -0.00220540 0.04832178 0.02536727 -0.00006359 -0.00000106 -0.00004805
66 1 22.703182 6.464482 12.263477 0.01430641 -0.03879721 0.03384584 47940.12322125 5703.12592952 70.73201979
67 1 30.216898 42.632834 0.581715 0.01622981 -0.02503112 -0.05753722 -0.00013736 -0.00004139 0.00009791
68 1 29.498690 6.165869 37.593728 0.02462294 -0.00123041 -0.01490217 0.00012448 0.00001139 -0.00011272
69 1 35.294255 27.012443 19.055878 -0.01432674 0.00689371 -0.00274570 -0.00026582 -0.00001868 -0.00002397
70 1 14.449636 18.511280 19.419295 -0.00049882 -0.00834962 -0.02408164 -0.00009884 0.00000820 -0.00004030
71 1 22.447385 41.492117 22.477889 0.03002527 0.04651557 0.00209580 0.00005623 -0.00000601 -0.00001919
72 1 23.042705 7.508014 33.849395 -0.06687027 -0.01915226 -0.00083061 -0.00003476 -0.00001705 0.00000236
73 1 2.034930 35.558210 24.297411 -0.02039086 0.00837895 0.01434297 0.00022395 0.00023304 0.00003342
74 1 36.648955 31.599660 28.511930 -0.01946088 -0.02956766 0.04055562 -0.00003389 0.00007573 -0.00001658
75 1 0.489531 6.019635 16.388371 -0.00297362 -0.01441761 -0.01535403 0.00020941 -0.00004587 0.00009263
76 1 34.584576 39.571087 16.847003 0.04880820 -0.05885752 0.04197896 561.88456636 365.00789576 1883.29854901
77 1 6.058533 0.017721 27.402073 0.01963114 0.01163315 0.09107139 0.00004517 -0.00002603 -0.00011973
78 1 6.528486 38.170610 41.303856 0.06607281 0.03427845 -0.00093779 1.69668248 0.60239225 6.86884783
79 1 41.683350 2.970057 29.229992 0.03173220 -0.00151255 0.03755971 -0.00013261 -0.00013744 -0.00000469
80 1 24.384832 13.620650 24.986775 -0.00481319 0.03094761 0.03843163 0.00005665 0.00007504 -0.00005192
81 1 37.329808 21.733439 36.786651 -0.01407297 -0.00610845 0.01191671 84.09922553 -5.88491495 -0.77091026
82 1 30.173570 35.437904 26.524665 -0.01437152 0.00226890 -0.00049009 -0.00008608 -0.00030915 0.00000443
83 1 0.079562 22.046526 10.527832 0.00348054 0.03350199 0.01220575 -0.00000021 -0.00013018 0.00000978
84 1 9.317771 36.001910 27.541998 -0.01591019 -0.02399723 0.00560743 -0.00004041 0.00015286 -0.00003392
85 1 30.155906 0.120977 9.835266 -0.00116048 0.04734856 -0.00149302 -0.00003133 0.00018255 -0.00007788
86 1 27.184160 24.307819 38.674288 0.00841775 -0.00402102 -0.03017511 0.00008745 -0.00002255 0.00009364
87 1 26.593813 8.193126 24.880860 0.02627616 -0.08053243 -0.03037125 0.00010142 -0.00014280 -0.00004406
88 1 14.475607 7.395684 28.535124 0.01230032 -0.04614616 -0.03019322 -0.00011241 -0.00004869 -0.00011927
89 1 38.567585 6.877769 35.456664 0.03028776 0.00928826 0.01700419 -0.00011037 -0.00007241 0.00011230
90 1 26.898979 33.984029 35.088396 0.05360763 0.01660058 -0.05018974 -0.00007015 -0.00022118 -0.00009170
91 1 17.694987 26.153431 1.904110 -0.04446468 -0.07688371 -0.06165741 256946.42509936 -153208.90453258 224990.30548349
92 1 15.573088 31.065566 27.339801 0.02445006 -0.01894021 0.01619733 -0.00006581 -0.00014018 -0.00004413
93 1 38.824476 35.774036 31.554159 -0.02585752 0.04642437 -0.02463503 -0.00010488 0.00008661 0.00005252
94 1 36.914121 7.499247 5.897625 -0.01034088 0.03067452 -0.01410340 -0.00001437 0.00012231 0.00018320
95 1 35.135493 19.551513 24.795145 -0.02711456 -0.00425930 -0.01264820 -0.00013208 -0.00004132 -0.00004390
96 1 31.184366 2.691548 26.805757 -0.00078901 0.00489581 -0.04436724 -5367.86921571 4256.55744184 -2997.05607412
97 1 32.923932 35.950509 37.855419 0.01558242 0.03746619 0.03898128 0.00001917 -0.00025627 0.00000014
98 1 33.422022 19.378436 33.987040 0.02858678 -0.08239647 -0.03219566 -0.00031771 -0.00015872 -0.00019495
99 1 13.119155 41.974967 8.044007 0.03014597 -0.03757972 -0.03155430 385.07081134 212.09359316 -351.61687280
100 1 41.255326 15.284754 19.709575 0.00218985 -0.04914009 -0.04365205 0.00003977 0.00001596 0.00001905
101 1 16.548782 9.535827 2.111372 0.00936808 0.07065076 0.03102048 -0.00012326 0.00010733 0.00002975
102 1 36.962121 23.382779 10.770524 0.00594752 0.05319076 -0.04068116 -0.00014708 -0.00002475 0.00008623
103 1 5.864448 38.873375 9.736986 0.03737455 0.03423871 0.00722499 -0.00005030 -0.00019962 -0.00006099
104 1 35.957316 16.752990 39.741256 0.00280029 -0.00816263 0.01487587 0.00005516 -0.00015545 0.00011359
105 1 35.628084 35.872062 10.755704 -0.00179407 0.04398516 -0.01412689 -0.00001845 0.00013531 0.00000975
106 1 13.501971 2.675097 30.213497 -0.00945779 0.02802223 0.04975195 -15.65986737 -5.10233718 -2.83473514
107 1 24.281915 12.966478 39.037462 0.01928481 -0.02260111 -0.03104719 0.00006201 -0.00012839 0.00010854
108 1 10.609043 1.744928 19.383365 0.04057641 0.01286573 -0.00416858 -0.00010577 -0.00000076 0.00006022
109 1 7.625449 2.810696 40.546848 0.00785366 0.02117720 0.00061328 30.55196414 0.31000084 -38.93690033
110 1 9.087766 6.276865 5.061818 -0.03340171 0.04325664 -0.00312342 -0.00021637 0.00013175 -0.00006494
111 1 0.027569 37.681931 38.228855 -0.01714626 -0.02570708 0.06065397 -0.00003213 -0.00003293 -0.00011984
112 1 25.665758 32.944588 10.314966 -0.00378290 0.00335366 0.06138468 -0.00001340 0.00016179 0.00003594
113 1 33.727252 33.994768 18.566703 0.02305568 -0.03067386 -0.02710303 -0.00007919 -0.00002975 0.00007528
114 1 11.862314 40.251433 28.461921 -0.04380360 0.00975648 0.05193522 0.00011921 -0.00007108 -0.00002801
115 1 27.258685 7.933161 1.296311 -0.02660589 0.00264443 0.04123813 -0.00013580 -0.00006029 0.00004704
116 1 37.860098 36.754739 4.145124 -0.01192026 -0.01072346 0.02068354 -0.00018779 0.00006785 0.00014436
117 1 12.407050 26.768889 6.766135 0.01128578 -0.03422484 -0.02576161 -0.00009516 -0.00001039 0.00002547
118 1 2.672278 32.419086 11.641685 0.02547537 -0.00595275 -0.00472580 -0.00003498 0.00009339 -0.00008040
119 1 13.127766 35.376138 20.438634 0.01266556 -0.01001408 -0.04454532 0.00005854 0.00000060 0.00001082
120 1 3.212979 35.718767 17.600297 0.03611068 0.01564404 0.00005067 0.00004775 -0.00012583 -0.00009352
121 1 27.698166 0.810979 5.618263 0.04323034 -0.01760726 0.00164102 0.00006045 -0.00003647 0.00001065
122 1 21.189237 2.265528 4.686353 0.00373490 0.01345946 -0.03451552 0.00001480 0.00003163 -0.00011555
123 1 8.447708 23.389754 33.027813 0.00319843 -0.06581162 0.01820321 -0.00006715 0.00007505 0.00017823
124 1 13.672444 19.848696 33.909666 -0.04786536 -0.00484271 -0.02639430 -15174.31659954 -20864.09881083 -6117.79087714
125 1 42.723560 14.673290 10.617615 -0.01485053 0.02131057 -0.00850832 0.00007387 0.00005574 -0.00007748
126 1 39.737989 23.192077 0.267928 -0.00397579 -0.00659984 0.00042610 -0.00013086 0.00002642 0.00020151
127 1 7.706594 40.190981 1.162250 -0.00089931 0.05719551 0.00694925 0.00072179 0.00140885 0.00179653
128 1 24.382870 0.300333 41.462096 0.03419700 -0.01416978 0.02613044 -0.00031249 -0.00006873 0.00004321
129 1 0.654285 19.747189 38.801966 -0.00224563 -0.01856224 -0.03468114 -0.00000771 -0.00021223 0.00004019
130 1 21.943100 26.761382 7.402712 -0.03432672 -0.02960196 -0.06544664 -0.00017602 0.00025588 -0.00006451
131 1 33.023409 21.948867 39.119000 -0.03612694 0.04588297 -0.02057294 -0.00050971 0.00021633 0.00022281
132 1 3.955233 12.622974 24.304023 0.02943451 0.03460085 0.01293459 0.00006304 0.00000388 -0.00043300
133 1 33.464850 4.324704 4.194744 -0.00164647 -0.02262164 -0.02296791 0.00012368 -0.00006085 -0.00006086
134 1 2.344576 42.306892 25.117713 -0.00522055 0.00907806 -0.02261240 0.00005687 -0.00018201 -0.00005584
135 1 24.999070 26.032030 2.737643 0.04061537 -0.00277681 -0.00150205 -0.00005057 -0.00012318 0.00007120
136 1 0.987416 13.809773 21.298273 0.00768888 -0.02894215 0.00523021 -0.00007089 0.00001158 -0.00001307
137 1 14.472085 16.382038 2.558028 -0.01268845 -0.01565714 -0.02461985 0.00002576 0.00005677 0.00006841
138 1 17.717094 4.718721 34.465359 0.04650042 0.03101954 -0.03958913 0.00017508 0.00007399 0.00002138
139 1 3.114106 41.153577 1.104012 -0.03760652 -0.03125672 0.02219316 -0.00013590 -0.00003735 0.00016904
140 1 42.205670 39.210896 37.587505 0.04075657 -0.01252056 0.02028768 -0.00002206 -0.00016524 -0.00007150
141 1 38.477690 28.884052 3.735253 -0.01948613 -0.01382770 0.03899700 -0.00017790 0.00000876 -0.00001954
142 1 36.210920 19.195939 42.201651 -0.02768986 0.04312254 -0.02840082 0.00008691 -0.00005492 0.00002071
143 1 8.618180 30.502508 35.258411 -0.04512368 -0.02049222 0.02681757 686.87102454 2382.20278888 -469.94128051
144 1 19.915412 40.415885 5.421760 0.00065041 0.05493882 -0.00022176 -0.00000137 0.00013947 -0.00011172
145 1 34.089681 37.193729 10.782311 -0.01025849 0.01439239 0.04725688 0.00007509 -0.00011299 -0.00000411
146 1 36.888016 23.380694 11.369116 0.00680895 -0.03991612 0.05167055 -0.00008605 -0.00002497 -0.00001130
147 1 8.894462 3.671857 33.858695 0.03881149 -0.01684225 -0.00557218 -0.00002801 -0.00001694 0.00004045
148 1 39.087970 20.470313 6.992664 -0.03656383 0.01611668 -0.01838969 -0.00000820 -0.00022252 0.00001641
149 1 23.376321 33.417331 10.598626 0.03686459 0.04838979 -0.00222184 0.00004508 0.00014746 0.00001581
150 1 32.333442 22.163728 3.240435 0.00316978 -0.00914520 0.00504691 0.00012644 -0.00001171 -0.00016734
151 1 38.829206 1.943682 32.150852 -0.02862500 0.02013720 0.02271868 0.00005735 -0.00007703 0.00006102
152 1 16.130849 33.752868 41.444480 0.04868388 -0.02621405 0.04626248 -0.00017951 -0.00007338 0.00000138
153 1 15.855628 15.970037 14.245897 0.00315432 0.01378486 -0.03026435 0.00004605 -0.00001242 0.00005018
154 1 36.960712 27.574941 35.869098 0.01000481 0.01219484 0.01967816 -6278.58177547 -9315.81241170 -1486.96705053
155 1 36.070221 21.673352 39.161962 -0.05982616 -0.02702883 0.05346053 -15.85684307 -186.48985003 10.75016096
156 1 2.265247 25.691119 35.198926 -0.01949909 -0.03611779 0.00458710 0.00002094 -0.00001006 0.00013607
157 1 17.466771 40.554740 12.092206 -0.02635306 0.02051901 0.02941063 0.00012204 0.00000214 0.00009902
158 1 33.046222 9.182064 8.949412 0.04492043 -0.05713407 0.02911056 0.00012255 -0.00007246 -0.00012341
159 1 15.635996 38.218129 24.446087 -0.00585335 0.01135706 0.05057917 -0.00033226 0.00036432 -0.00053605
160 1 38.583222 9.510935 19.988743 -0.00712308 -0.00668454 0.02069348 -0.00010799 -0.00013694 -0.00011006
161 1 22.502425 3.023851 4.290546 0.00379766 0.01602526 -0.01406948 -0.00003284 0.00002464 -0.00002828
162 1 22.134033 14.388562 15.348769 -0.02962353 -0.03491927 -0.07087118 -0.00005044 0.00005168 0.00016360
163 1 27.026042 19.128170 7.938903 0.00007441 0.01531702 0.06802039 0.00008522 0.00000244 -0.00004830
164 1 29.868856 0.468718 1.037952 -0.01395683 0.00347263 0.00135023 0.00008632 -0.00022256 0.00016070
165 1 22.744086 14.433784 22.508182 0.02452715 0.00409181 -0.00396276 0.00012560 -0.00003419 0.00008757
166 1 32.240516 8.171581 14.135074 -0.02708488 -0.00288759 -0.00678769 -0.00000980 0.00016828 -0.00004318
167 1 21.831155 24.287791 13.525173 0.03207971 -0.00238875 0.00488302 -0.00007018 0.00008170 0.00014455
168 1 21.957329 32.567452 41.365452 0.00777604 0.00390308 -0.00182337 0.00003342 -0.00019629 -0.00002694
169 1 10.595551 41.321325 14.821531 -0.00412042 -0.01769413 -0.03685632 -0.00010599 0.00016812 0.00012625
170 1 39.716510 34.661970 1.890337 0.08650691 -0.05173772 0.04826637 -0.00008684 -0.00022435 0.00010169
171 1 40.391142 21.007492 38.348721 -0.01025351 -0.01677331 0.01570212 0.00313553 -0.00078550 0.00096948
172 1 25.948035 36.649019 35.178808 0.04782230 0.02478914 0.01219234 -0.00016939 0.00010668 -0.00007196
173 1 2.010020 13.859603 40.172716 -0.02267500 -0.03774261 0.01915719 0.00010154 0.00012378 -0.00000487
174 1 35.021831 8.171865 35.478310 -0.03925641 0.00955793 -0.00816513 0.00000698 0.00000198 0.00012046
175 1 20.668147 23.277265 0.390833 0.01399713 -0.02838937 0.04486217 0.00074509 -0.00077923 -0.00029707
176 1 33.685477 33.055720 40.239266 0.01489400 0.01248181 -0.00016143 0.00004153 0.00004851 0.00006596
177 1 2.022463 38.221022 14.057806 -0.01374999 -0.00705429 -0.03088937 60.29428572 -56.34352927 16.98127730
178 1 14.586395 2.145913 25.696269 0.00166297 -0.00358545 -0.02524821 0.00011557 -0.00001886 -0.00052682
179 1 39.361937 11.923909 29.094059 -0.05226163 -0.05464482 0.04242284 -0.00002239 0.00012487 -0.00005159
180 1 9.602336 20.969184 24.831129 0.02395152 -0.00793426 0.02941272 -0.00010066 0.00003419 0.00002553
181 1 18.931757 41.416697 38.463720 0.01210940 -0.02861334 -0.00244805 0.00001839 -0.00002433 -0.00025916
182 1 17.591418 33.705120 14.283020 -0.02613214 -0.00033982 0.01448127 0.00002332 -0.00010768 0.00007229
183 1 36.543745 30.102214 16.593152 0.04721147 -0.00162414 0.02604152 -0.00007976 -0.00005574 -0.00002769
184 1 33.243562 28.363532 24.251832 -0.00737999 -0.01225369 0.00624535 -0.00000862 0.00010284 -0.00004653
185 1 42.422856 24.540445 16.035807 0.00639880 -0.01822258 0.02435657 0.00013825 -0.00000810 -0.00019812
186 1 23.510957 17.712033 26.914401 0.01693900 0.03273767 -0.00214112 -0.00013598 -0.00015662 0.00001397
187 1 30.822539 13.366893 37.719290 0.03268328 -0.03088578 -0.00663648 -0.00018407 0.00002329 -0.00000013
188 1 15.739031 5.506733 41.234348 -0.05221011 -0.04778168 -0.00645838 0.00002649 0.00001072 0.00000477
189 1 6.892875 39.430743 10.476672 -0.02366945 -0.00313290 0.01603563 -0.00001696 -0.00003857 -0.00009602
190 1 13.969123 40.691269 31.400210 -0.03504796 0.00493497 0.06784887 54.90118317 876.50603179 583.44341267
191 1 31.013918 38.651104 24.364257 -0.00682947 -0.05068094 -0.03185350 0.00010322 -0.00006102 -0.00011053
192 1 20.859372 25.208242 34.783465 0.06406526 0.03051989 0.02699356 0.00005057 0.00000082 -0.00004853
193 1 17.159291 37.276220 1.771268 0.02635662 -0.03252684 -0.01430324 0.00003381 0.00010514 0.00015052
194 1 18.658966 33.565608 36.700460 -0.04188051 -0.06096376 0.02414073 -0.00001547 0.00001066 -0.00002214
195 1 27.853630 23.678780 18.227231 -0.01913418 -0.06474692 0.01789165 -0.00001020 0.00001059 0.00010671
196 1 28.618125 21.987275 2.545789 0.03019258 -0.03295588 0.02388044 0.00003729 -0.00021090 -0.00006968
197 1 26.300896 26.148479 10.262923 0.03031394 0.00961527 -0.05365178 0.00005898 -0.00008083 -0.00003155
198 1 40.707899 36.576687 14.700859 0.01484023 -0.00181958 0.01123528 -0.00066488 -0.00032937 0.00015356
199 1 37.009323 8.627174 0.397038 0.01703659 0.01212783 -0.03345401 -0.00022126 -0.00006523 0.00004737
200 1 31.282721 7.932334 21.673577 0.01969049 0.00767819 0.06104071 -0.00009926 0.00020597 -0.00003729
201 1 38.008875 12.186081 11.512008 -0.00966837 0.04899617 0.02554305 -0.00003472 0.00008673 0.00022213
202 1 6.896464 38.952773 1.821903 0.00530526 0.00351953 0.03767641 0.00034073 0.00059952 0.00242982
203 1 6.420082 31.808291 36.221573 0.01151891 -0.04327227 -0.00005724 0.03235614 -0.01910313 -0.01410186
204 1 8.419200 37.599649 31.333364 -0.02219106 0.02147206 0.02159642 -5783.03484195 -42.81041977 -977.54420391
205 1 33.052572 41.725604 39.755447 0.01439971 0.02299945 -0.03821132 -0.00008804 0.00010152 0.00018704
206 1 9.854544 22.047756 29.597605 -0.01495295 -0.02241800 -0.00173325 0.00012348 -0.00003985 -0.00010742
207 1 38.921786 19.482133 38.055329 0.04833514 0.01050107 0.01370578 -0.00017885 0.00120155 -0.00208992
208 1 10.028409 33.047773 30.276609 0.01061306 0.02071537 -0.02482740 0.00018130 -0.00030718 -0.00030454
209 1 32.379208 40.503185 10.451546 -0.06497465 0.00717095 0.01690184 -0.00010836 0.00005997 -0.00010053
210 1 33.721912 28.016810 8.501744 0.02381059 -0.01921679 -0.02280024 0.00012633 -0.00002238 -0.00004816
211 1 36.490123 19.980223 41.715856 0.00236340 0.02815049 -0.04354594 -0.00026847 0.00061846 -0.00077226
212 1 25.377789 22.877092 12.344668 -0.04396897 0.00166330 0.00918990 0.00000360 -0.00005948 0.00008362
213 1 38.455758 2.883210 7.690876 -0.04323097 0.02089159 -0.02348408 0.00007746 0.00001647 -0.00008063
214 1 13.619486 3.090731 25.467852 0.01135001 0.05517116 0.00853064 -0.00004985 0.00000961 -0.00061351
215 1 16.443943 13.535814 4.055478 0.00277110 0.00093741 -0.00666649 0.00007333 0.00005145 0.00033064
216 1 41.449266 22.080994 19.886365 -0.01939561 0.06971578 -0.03617141 -0.87959872 -18.71045304 0.25885372
217 1 24.044793 27.888254 7.210699 0.01376718 -0.00246735 0.00239839 -0.00003673 0.00010673 0.00015489
218 1 5.154328 30.447732 8.987670 -0.02321177 0.00702147 -0.04270611 -0.00002550 -0.00003904 0.00015576
219 1 8.525990 15.502541 22.579562 -0.00338035 0.00002838 0.01170958 -1.30182831 2.54006236 2.82266685
220 1 19.409356 13.163887 16.668638 -0.04013895 0.01570220 0.00703547 -18.23388279 -19.81621526 -3.79742536
221 1 24.136676 14.289590 39.788915 0.02707216 -0.00211103 -0.01516616 0.00000577 0.00002761 0.00017245
222 1 14.846042 4.795101 27.239965 0.00850158 0.00257520 0.00657036 0.00052561 0.00100980 -0.00150637
223 1 33.966485 31.694017 37.011886 -0.02755327 0.04703348 0.01938082 0.00001466 0.00009438 0.00001790
224 1 12.957040 30.852645 37.063077 -0.00691226 -0.01930753 0.04612546 0.00061279 -0.00010421 0.00030027
225 1 37.105546 34.217255 7.866392 -0.04193640 0.02916696 0.02002803 0.00012997 -0.00004348 0.00005237
226 1 15.749382 36.420542 11.157483 -0.02735598 -0.00115931 -0.03721721 0.00012781 0.00009079 -0.00014202
227 1 10.326218 13.164297 29.521858 -0.01504326 -0.03115748 -0.06226096 -0.00007972 -0.00002083 0.00002042
228 1 41.499507 35.191419 13.108474 -0.02589041 0.02328389 0.01132579 -1151.24960264 -1252.06686574 -1516.39876938
229 1 8.608550 17.438569 29.695300 -0.00739141 -0.00023859 -0.00464184 0.00002256 0.00000190 0.00001462
230 1 14.192764 0.877942 25.849579 -0.03197585 -0.02628220 0.03116328 37.75879497 -44.05864989 10.02611843
231 1 28.173510 38.174256 7.006936 -0.00788144 0.01092442 0.00861396 0.00005642 0.00000149 -0.00003703
232 1 30.650321 26.317528 18.029365 0.02800686 0.01229855 -0.00304495 0.00011308 -0.00000896 -0.00004963
233 1 19.201310 6.890321 23.006095 -0.05246296 0.02734913 -0.01574367 -19042.97934990 27903.86991786 -17941.60955357
234 1 29.081127 7.296742 2.995489 -0.00703820 0.02800318 -0.02778300 -0.00014443 0.00013404 -0.00001016
235 1 22.079063 0.502025 17.818388 0.02953549 -0.04921728 -0.00449893 0.00010983 0.00006240 0.00009559
236 1 34.675683 39.936135 22.138125 0.00937013 0.01928229 0.02730919 -166.57188168 -436.41402669 494.71266523
237 1 23.869848 3.200290 7.743711 0.03854287 -0.02139339 0.03243815 -1686.49459778 -16872.67244424 -5392.07795575
238 1 9.556237 12.464799 37.918642 -0.02262462 0.00644138 -0.00277320 -0.00037445 -0.00001760 0.00009051
239 1 37.525336 38.538156 34.896450 -0.02249918 0.02813358 -0.00679389 -0.00012583 -0.00001304 0.00007320
240 1 11.879293 13.555822 26.878695 -0.01390095 0.00619526 0.02462627 0.00009204 0.00003792 -0.00001608
241 1 1.822252 41.933115 21.970275 -0.01520196 -0.04600745 0.03785902 0.00015342 0.00011728 -0.00015456
242 1 4.992615 26.980909 3.514851 -0.06908874 -0.00332647 -0.00848470 -0.00008735 -0.00005056 0.00010423
243 1 14.648014 4.867479 2.783205 -0.00609663 0.04325727 0.03653168 0.00009081 0.00004622 0.00005337
244 1 25.728385 14.460052 41.898646 0.07769430 0.00175439 -0.01307039 1414014.90657358 -1593732.38493746 -505109.22324642
245 1 11.297555 24.698450 7.259342 0.00267588 -0.01148294 0.00196614 -0.00015563 0.00011800 0.00012527
246 1 21.700124 2.014788 23.267130 -0.00881477 0.02374104 -0.01721478 0.00010267 -0.00013718 0.00007650
247 1 20.368376 23.845288 37.151495 0.03780734 -0.02814905 -0.04303747 0.00003848 -0.00018040 -0.00003632
248 1 30.023645 11.751616 16.232084 0.00652296 -0.02226191 0.00404516 0.00002416 0.00000454 -0.00007798
249 1 15.182239 3.549358 13.347305 -0.00805773 -0.01595089 0.00091989 -0.00012930 0.00008789 0.00021419
250 1 22.351776 38.485465 27.194215 -0.00750170 -0.02451238 -0.01580835 0.00026733 0.00004206 -0.00013908
251 1 12.103266 27.864418 24.568473 -0.00368568 -0.04836113 0.02703778 8.28153191 -3.80968604 -2.62768171
252 1 42.248624 12.296653 33.491916 0.01197687 0.00515132 -0.01536297 0.00011403 -0.00014219 0.00003930
253 1 42.003451 29.473445 9.479411 0.02052164 0.00731858 0.00907736 -0.00004910 -0.00007501 -0.00028408
254 1 17.482393 5.898281 30.388962 0.02630412 -0.01353976 0.05070676 0.00027635 0.00002966 -0.00008179
255 1 11.598124 23.626436 33.210596 0.00356335 -0.02041963 -0.00380483 -0.00058766 0.00073287 -0.00020614
256 1 18.618676 7.675926 8.461733 0.00865069 -0.01169050 -0.01983152 -0.00006959 -0.00004394 -0.00016434
257 1 36.505795 25.789946 38.173204 -0.00504645 -0.00319621 0.05963804 0.00126194 0.00713454 -0.00653797
258 1 36.036201 14.978657 28.972168 -0.03514972 0.00558734 -0.01548982 -70.05360623 -5.70415618 42.69756089
259 1 31.162470 2.966437 12.679817 -0.02677566 0.04215637 -0.07261393 -205909.73317777 -3967332.17556010 428242.48666563
260 1 23.358634 14.548189 8.746289 -0.04056580 0.00735162 0.02170968 1.28983429 -5.33130532 1.53280958
261 1 8.551262 34.192581 5.892801 -0.01084565 0.03050412 0.03530319 -0.00012163 0.00001456 0.00017953
262 1 39.923104 23.468321 10.892213 -0.05523374 -0.03268932 0.01545305 0.00006465 -0.00004084 0.00001077
263 1 2.094293 31.132180 37.600528 0.01248874 -0.02202223 -0.00669169 -0.00006856 0.00001646 -0.00008743
264 1 22.293328 22.335822 37.688319 0.01589293 -0.00184200 0.00494275 -0.00000616 0.00015654 -0.00000634
265 1 35.826778 6.255412 19.607228 0.01185357 -0.00590695 0.05979245 -0.00001592 0.00002351 0.00020599
266 1 29.937627 25.199841 34.967328 -0.04128816 0.02316109 -0.01063443 0.00009078 0.00013068 -0.00009514
267 1 5.148566 34.377467 17.662590 -0.07055627 0.00279931 -0.00184506 0.00006013 0.00007666 0.00008041
268 1 12.079016 5.335189 17.743455 0.04829597 -0.03433894 -0.04312598 0.00011251 0.00003636 0.00000075
269 1 21.022315 32.102315 42.620363 -0.00235744 -0.05100157 0.04614505 0.00004591 0.00012331 0.00026456
270 1 32.362258 2.009406 1.667608 -0.00692054 -0.05144216 0.02278457 0.00002077 0.00009478 0.00003424
271 1 37.865160 24.441332 34.508426 -0.00449147 0.01841796 -0.03935771 0.00106450 -0.00019629 -0.00268012
272 1 9.552923 29.980776 23.892954 -0.01574229 0.00459149 -0.01039488 -0.00180167 0.00160683 -0.00056261
273 1 23.485283 40.867290 34.832289 -0.05446329 -0.00306158 -0.03470971 0.00004575 -0.00006188 0.00018305
274 1 2.982535 21.869289 30.402425 0.01759484 0.00385404 0.01988153 -0.00015101 0.00003235 0.00008449
275 1 10.380183 13.197164 28.000153 -0.00260730 -0.05287717 0.02660476 0.00008469 -0.00003546 -0.00004150
276 1 29.505108 16.267849 18.659243 -0.01112635 -0.04099047 -0.00655391 -0.00003373 0.00018207 0.00000672
277 1 39.936227 28.002967 42.645789 0.04251318 -0.00948825 -0.06352292 0.00010220 0.00004283 -0.00016361
278 1 0.092377 8.956380 18.479174 0.00089625 0.01147404 -0.02352841 0.00016514 -0.00003794 0.00003946
279 1 22.007882 10.004544 35.301147 0.03363816 0.03364669 -0.00001836 0.00009766 -0.00026852 0.00009558
280 1 30.029055 33.511562 23.740165 0.00559302 -0.01582463 -0.02503650 0.00008175 -0.00004365 -0.00000280
281 1 31.414702 19.889208 39.890773 0.03108741 -0.04656216 0.03989543 -0.00037681 -0.00018864 0.00026208
282 1 32.762839 8.581628 29.668708 -0.01450410 0.03358508 0.02349961 -208.56214279 98.20936124 451.03629735
283 1 29.142290 12.108768 18.454383 -0.04631740 0.00650294 -0.02236833 0.00008902 0.00008198 0.00008733
284 1 32.176686 14.611243 2.563352 0.01855601 0.01511314 -0.01247198 -0.00003875 0.00006323 -0.00006368