ITEM: TIMESTEP
0
ITEM: NUMBER OF ATOMS
2317
ITEM: BOX BOUNDS pp pp pp
0.0 31.524914
0.0 31.524914
0.0 31.524914
ITEM: ATOMS id type x y z vx vy vz fx fy fz
1 1 21.853789 17.155781 16.108524 -0.04969308 -0.01289380 0.01508356 12.28686270 -3.84171538 3.71733343
2 1 10.962897 22.488423 4.619700 0.03132946 -0.03959111 0.03730974 -0.00012500 -0.00013742 -0.00006193
3 1 30.387533 8.978821 9.336460 0.03768365 -0.00448988 -0.05717241 -0.00001315 -0.00023312 0.00016279
4 1 18.326804 27.003121 13.805187 0.03143588 -0.01121377 0.01291186 0.00005603 0.00000897 0.00005419
5 1 24.334981 26.242542 5.687458 -0.01607070 0.00195967 0.06293424 0.00010152 0.00005251 -0.00003176
6 1 12.651740 23.738878 19.135646 0.02590645 -0.00047340 0.02914297 -0.00009524 -0.00001654 -0.00013870
7 1 6.548619 8.344502 3.418497 0.00099932 0.04381815 0.00183169 149.42063016 -172.05499187 45.98295899
8 1 12.697226 27.066252 6.068481 0.02402722 0.00399427 0.00930900 -0.00003995 -0.00002054 -0.00005510
9 1 22.606865 26.614677 20.419621 0.00800442 -0.03786427 -0.02759035 -0.00005792 -0.00011439 -0.00005949
10 1 22.784603 15.110969 27.051403 -0.00943077 0.05286867 0.05823187 0.00006030 0.00012296 0.00004838
11 1 7.832071 27.012127 1.915093 0.05075280 0.01281379 0.02683137 0.00017349 -0.00020743 -0.00003443
12 1 26.684334 13.237194 8.238887 -0.02403699 -0.00669369 -0.00649228 0.00014235 0.00005189 -0.00006243
13 1 23.127293 25.844140 7.869115 -0.00401423 0.03017285 0.02993110 0.00008861 -0.00006760 0.00010527
14 1 28.663570 26.793500 10.258528 -0.01568275 -0.00489173 0.04727515 -0.00010936 0.00023418 -0.00002969
15 1 5.149701 4.960149 3.144506 0.01420195 0.00886433 -0.02180077 -0.00083982 -0.00217998 -0.00025357
16 1 11.901420 22.845769 5.604715 -0.00351056 0.00193495 -0.06458081 -0.00002206 0.00022361 0.00003656
17 1 27.551937 7.871020 0.900398 0.01796734 0.01519199 0.02747027 0.00001673 0.00006668 -0.00013640
18 1 21.963743 5.166771 29.606348 0.01490425 -0.00151974 -0.00240999 8.87903766 12.33722424 27.21907578
19 1 19.145709 18.005543 0.597473 0.04229013 -0.02875322 0.04526772 9.29763753 8.72344775 -8.12451381
20 1 28.556638 10.743346 21.703576 -0.05099904 -0.02014042 -0.01960547 -0.00017179 -0.00014480 0.00003835
21 1 16.896621 22.247013 29.891283 -0.00157367 0.02781898 -0.03521071 0.00008442 0.00027870 -0.00007657
22 1 18.630455 30.216704 21.351296 0.03660964 -0.07068691 -0.02369864 -0.00007072 -0.00010094 -0.00001261
23 1 2.690213 26.563407 30.659158 -0.04490465 -0.01268378 0.03677815 0.00010876 -0.00000104 0.00004250
24 1 18.973284 7.049032 10.831987 0.02159570 0.03074676 0.03585832 19828.84497760 -6209.35435428 47224.61711670
25 1 12.300119 4.070319 27.343179 -0.04267358 0.01347201 -0.00933719 -0.00006472 -0.00006387 0.00012199
26 1 18.115595 19.945850 24.229551 -0.03461600 0.04039587 -0.03561217 -36758.72638682 -130046.04074066 -183930.61247193
27 1 3.463947 23.785748 22.047664 0.00164987 -0.02489322 0.00767630 -0.00004682 0.00002410 -0.00013471
28 1 12.072648 15.094711 12.836454 0.02971214 0.01516249 0.01741630 -1746750.50078200 -2202143.74897199 -458063.31394417
29 1 21.713081 4.693038 24.631905 0.00088775 0.06452955 0.02675288 3.33899130 5.86905234 -5.83598185
30 1 4.162877 14.415156 6.973298 -0.02973746 0.02538559 -0.04957531 -0.00000018 0.00012770 -0.00008397
31 1 16.771383 12.422104 3.085771 0.01210482 -0.03466104 -0.04495651 -0.00002808 0.00006182 -0.00009260
32 1 21.836959 28.904909 26.764554 -0.00825060 -0.01490160 0.04122953 0.00026286 -0.00006969 0.00002661
33 1 26.784316 14.666820 13.259818 -0.05316182 0.05198784 0.02314656 -0.00001022 -0.00004981 -0.00002928
34 1 4.928034 7.376954 7.967685 0.03159680 -0.03185448 0.01376188 -0.00017790 -0.00003827 0.00060976
35 1 0.682244 3.268895 20.144080 -0.00122180 -0.00960326 -0.07698779 -2875818.08605455 766328.12481427 -267765.78987136
36 1 30.875898 13.126266 7.382948 -0.02676010 0.01411356 -0.01912225 -0.00003847 -0.00012823 0.00000761
37 1 13.980732 8.125121 31.352007 -0.03983140 -0.02186246 0.01745754 -0.00011305 0.00010315 -0.00002951
38 1 24.974183 1.315149 2.260641 0.00709088 0.02003996 0.01663650 0.00002492 -0.00027842 -0.00001032
39 1 6.122388 7.523061 14.017288 -0.00974204 -0.01386291 -0.03251413 908.41133300 -2295.17817860 -679.88989148
40 1 13.619981 2.719970 12.747018 -0.02561638 0.03838734 0.05327826 -0.00017336 0.00003593 -0.00008294
41 1 11.255089 19.219415 4.737364 0.01515663 -0.02154606 0.03285598 -0.00015750 0.00003465 0.00021330
42 1 24.759011 6.387646 18.771920 0.02812201 0.03067905 -0.00490429 -0.00017561 0.00014131 -0.00004703
43 1 6.687155 9.243739 14.506055 -0.02798303 0.00758651 0.01461602 -2.70037656 -8.22801903 -2.33712435
44 1 9.462055 0.796630 8.047731 0.02200161 -0.03284716 0.04449007 37578.90340444 110673.62405984 157881.95006601
45 1 12.546715 1.548856 29.950378 -0.01707523 -0.06112408 0.03555258 -0.00006577 -0.00002954 -0.00008518
46 1 9.594705 30.088107 30.080624 -0.02363958 0.04653593 0.02216773 0.00010756 0.00005219 -0.00009545
47 1 22.529317 4.893552 13.676192 0.02048901 -0.04818976 0.01042848 0.00033452 -0.00011158 0.00019582
48 1 13.834994 25.592941 10.487132 -0.03262473 -0.00682622 0.01520233 -695.70230070 -369.00077095 546.17610949
49 1 16.876736 13.276065 11.387730 0.02701415 -0.02707472 0.03629258 -131.65095030 354.70981804 -167.20725908
50 1 5.365063 20.819807 8.875956 -0.01084310 -0.01291066 -0.05803228 -0.00027311 -0.00000111 -0.00019870
51 1 28.221737 20.623979 22.401233 -0.01627813 0.03278591 -0.00612111 -0.00004958 0.00006597 -0.00002556
52 1 15.941986 25.552888 5.018194 -0.02803905 -0.01971484 0.00426166 -34910.56495376 -2138.49701921 40509.04565430
53 1 5.721027 25.508110 17.166664 0.01780440 -0.05779939 0.01769795 0.00004307 -0.00002433 0.00007368
54 1 10.716356 19.801554 19.162241 0.03143109 -0.03795609 0.03687271 -0.00008893 -0.00001437 0.00004128
55 1 21.786856 27.454882 10.904581 -0.03692808 -0.05809174 0.04861029 -0.00004318 -0.00024049 -0.00001214
56 1 22.300611 24.859056 16.310555 -0.00784836 -0.00096912 -0.01848089 862443.03295167 626031.92104903 -341419.87351030
57 1 17.570637 2.986642 14.877103 -0.03442781 -0.06781482 -0.02883849 1355.27316326 11151.46945051 -7523.00404328
58 1 9.578812 23.970278 22.264174 0.01191155 -0.00996633 0.03876751 61.69977471 -8.41375537 -15.57150394
59 1 1.088110 19.975962 1.622391 0.03411706 -0.01823922 0.02207329 0.81347852 -10.18572048 -0.77786171
60 1 14.922126 23.849602 5.798614 0.02583969 0.07848966 -0.00439112 0.76177078 1.27201851 -0.58324418
61 1 26.248778 5.558744 17.451146 -0.04478578 0.00397992 -0.04527196 -0.00009252 0.00008775 0.00000739
62 1 29.695513 8.432564 0.635336 0.00064319 -0.01318255 0.03039803 0.00008626 -0.00007145 0.00006666
63 1 20.104127 19.466812 23.859715 0.02165741 -0.02154375 -0.02868631 -0.45869218 0.68454357 -3.77600446
64 1 9.286036 25.067410 25.852368 0.04443167 0.01219815 -0.00207217 -0.00032767 0.00075495 0.00187102
65 1 9.621388 0.070222 1.767765 -0.04789066 0.00449371 -0.03253082 335.92259891 287.63992311 407.21690090
66 1 2.605624 7.921338 20.535784 0.05804200 0.00478333 -0.02109753 0.00006676 0.00045480 -0.00004725
67 1 19.852743 8.558685 22.213043 0.01201980 -0.04910347 -0.03098436 -0.00024255 0.00023361 -0.00018902
68 1 31.336838 18.098010 29.114116 -0.01048072 0.02546122 0.05028624 97.79736367 -117.25554987 9.26378438
69 1 27.879321 11.705318 27.312430 0.00234620 0.01368114 -0.04391203 0.00014504 -0.00008320 -0.00004167
70 1 24.295082 30.550644 3.905138 -0.04192131 -0.01725245 -0.00730122 -6774.64942978 -630.56775382 7647.03837942
71 1 31.245661 15.404229 9.279114 -0.01496378 -0.01567705 -0.00320715 -84246.79301586 16827.40921685 161708.57301801
72 1 20.732813 24.483320 5.096176 0.01399797 0.00833735 0.01683603 -560.76749636 232.18548661 -145.63604149
73 1 2.065297 15.667706 3.494951 0.00226757 0.03164680 -0.05652179 0.00024875 -0.00050513 0.00027651
74 1 5.189176 20.005865 1.007070 -0.00775463 0.07138160 -0.00492869 0.00147866 -0.00010232 -0.00025073
75 1 0.849986 17.637356 18.069333 -0.03130287 -0.02159625 0.03216740 -0.00004557 0.00003570 -0.00001349
76 1 26.948526 12.462055 16.006749 -0.01373418 0.03983289 0.03210554 0.00006705 -0.00023608 -0.00010039
77 1 1.042751 21.166137 6.995833 0.03040093 0.01400959 0.02607880 -0.00000467 0.00014907 0.00033190
78 1 23.629668 25.948121 2.005711 0.05441426 -0.02864895 0.02166949 0.00037321 -0.00014544 -0.00083791
79 1 26.992425 18.139367 29.249538 -0.00192710 0.06303703 0.02513989 -0.00106932 -0.00011706 0.00002673
80 1 10.014523 15.848425 19.676390 -0.00280691 0.03870544 0.00892912 -2.28696740 -1.75813014 -1.09690330
81 1 19.390788 14.948086 1.171018 -0.01251155 0.02644574 0.01599969 -0.00009082 0.00057268 0.00000641
82 1 5.643218 6.681434 8.752937 0.00687571 0.00157903 -0.04801411 -0.00020388 0.00012475 -0.00016585
83 1 9.026777 8.450394 24.404223 -0.00639915 -0.07660456 0.04091664 -0.00003427 -0.00001922 0.00001476
84 1 21.436909 21.877809 18.362029 -0.01447956 -0.01655276 0.02211217 -0.00060145 -0.00135674 0.00129256
85 1 7.224017 17.128859 6.077466 -0.04656953 -0.02557015 0.03493262 0.00003558 -0.00011865 0.00010309
86 1 12.610473 28.135428 16.265269 0.01985443 -0.02844628 0.02872594 872.59004040 1252.33886616 -815.16470078
87 1 10.181918 21.365366 5.214596 -0.02273763 -0.01981167 -0.03515001 -0.00012921 -0.00017707 -0.00001466
88 1 14.750106 22.100486 23.615270 0.04557823 -0.03161622 0.03534793 -0.00115369 0.00084168 -0.00037917
89 1 20.756805 6.578884 24.951007 -0.02504952 0.00466454 -0.01449882 0.68897902 -1.35872539 -0.23021591
90 1 3.739939 26.175688 6.525339 0.02679588 -0.01816419 -0.05270711 -0.00000618 -0.00002098 0.00011159
91 1 11.075330 19.562031 31.388156 -0.04591154 0.06712022 0.00763320 -0.00000152 -0.00008767 0.00007127
92 1 22.822566 27.265512 9.218277 -0.05460422 -0.05551877 -0.02430244 -0.00006722 0.00006704 0.00018985
93 1 27.302124 9.733335 15.268508 0.01888748 -0.05833537 -0.02178224 -0.00000782 0.00005148 -0.00010141
94 1 13.869228 22.596383 21.165423 0.03433823 -0.00916812 0.02679239 0.00045211 -0.00013799 -0.00024927
95 1 6.070842 26.115365 1.343672 -0.00879932 0.05814098 -0.00905091 -0.00015587 -0.00008714 -0.00003134
96 1 2.709580 24.029605 18.293954 -0.05716717 0.02689132 -0.03134689 -0.00009266 -0.00009626 -0.00004578
97 1 24.896935 23.799364 5.907928 0.01858789 0.02241396 0.00942695 0.00103957 -0.00023955 0.00010575
98 1 21.859219 6.225476 12.760823 0.04720069 0.04154353 0.05080554 0.00225127 -0.00034913 0.00119643
99 1 22.596182 30.628405 27.134268 -0.02673777 0.00641565 -0.01737258 -0.00008414 -0.00015354 0.00030105
100 1 2.012803 28.248054 22.534724 -0.03740134 -0.00452841 -0.02451531 -0.00000836 0.00014867 -0.00012037
101 1 17.976665 19.454342 23.534396 -0.05426143 0.04102556 0.00293831 36760.35303356 130046.67129319 183929.28165578
102 1 24.951033 13.857030 26.904054 -0.04579909 0.05686834 0.02707854 -0.00020099 0.00002729 -0.00010226
103 1 20.463197 7.658826 10.479678 -0.00039916 -0.01945034 0.04727653 -44.77186812 -18.32426889 10.58678663
104 1 25.882729 8.139040 0.416136 -0.04283889 -0.04133583 0.02627667 0.00019678 0.00004606 0.00011947
105 1 2.152549 1.298790 10.442418 -0.00021504 -0.00832372 -0.01656127 -0.00005049 0.00005170 0.00005746
106 1 19.806503 31.406693 26.689319 -0.02233660 -0.05917315 0.01254510 -0.00002723 -0.00027854 0.00011809
107 1 30.493340 19.143937 25.138430 -0.02259319 0.01716686 -0.00717838 -0.00019102 0.00027218 -0.00123333
108 1 7.718782 2.059399 5.063680 -0.02618940 -0.03373720 0.01451272 -0.00146920 0.00110582 -0.00116448
109 1 1.884402 6.668778 19.990589 -0.00184772 0.01179337 0.01401012 0.00088118 0.00222810 -0.00012596
110 1 3.014479 11.408357 23.445316 -0.00925194 -0.00644796 0.02765196 0.00017896 -0.00002310 0.00013110
111 1 12.887703 15.074237 1.960858 0.01288944 0.05848820 0.06317195 0.00003449 -0.00016776 0.00020702
112 1 7.728352 0.577667 17.730219 0.00383213 -0.06101055 0.01228826 0.00003968 0.00011592 0.00010104
113 1 27.363121 29.986166 11.189916 0.01122613 0.00826719 -0.00854885 0.00001247 -0.00000833 0.00008391
114 1 22.956663 4.002189 29.531005 -0.00241591 -0.02469516 0.00872179 -83.30096019 97.70257038 6.32141425
115 1 30.958172 21.948276 28.129733 -0.02454479 -0.01520536 -0.01602049 -0.00009163 0.00153264 -0.00044471
116 1 24.920689 4.454193 30.648661 -0.02975186 0.04528892 -0.03315699 0.00125932 -0.00016463 0.00033970
117 1 12.615084 4.103251 17.031852 -0.00420800 0.04227804 0.02882804 -0.00004265 -0.00012755 0.00017253
118 1 1.750453 3.373261 24.132454 0.02165646 -0.01167983 0.00023149 0.00028116 0.00026225 0.00115522
119 1 13.656524 7.793935 20.906829 0.01927872 0.02261393 -0.01587378 0.00000340 -0.00011370 0.00006101
120 1 16.045470 31.376784 0.998268 0.00748306 -0.02723439 -0.05137792 0.00005752 0.00018148 0.00001126
121 1 27.853883 29.370046 12.273795 0.04257294 -0.02443481 -0.04506500 -0.00008917 -0.00005077 0.00010259
122 1 15.253011 4.172458 11.696758 0.00063703 0.05479033 0.04053483 -0.00123920 0.00012419 -0.00107802
123 1 20.196214 19.006561 31.075616 0.05791411 -0.02306194 0.00325101 -18.63215679 23.66569648 32.19915651
124 1 4.783672 4.992565 27.767241 -0.01693534 -0.04188648 -0.02119276 -0.00000367 -0.00000095 -0.00009222
125 1 22.284768 9.292677 29.267507 -0.04432061 -0.03191373 -0.00955063 0.00016923 0.00154790 -0.00029415
126 1 9.534673 15.026426 4.734322 -0.00300677 -0.02677787 0.01958260 0.00018257 0.00000882 0.00009377
127 1 22.218352 20.568387 15.153228 0.01373781 0.00368290 -0.03094978 0.00019680 0.00153286 -0.00101119
128 1 10.704474 29.676290 12.849993 0.01177123 -0.00757731 0.03948437 -0.00077877 0.00063455 -0.00083562
129 1 22.220293 25.312737 5.010771 0.02633393 0.00142105 -0.00368303 -27.57451257 -15.37587879 1.58332317
130 1 12.659948 11.084359 9.197766 -0.00388816 0.00478126 -0.01452328 -0.00025770 -0.00033648 -0.00024003
131 1 30.790300 5.801241 29.611538 0.04807202 0.00475883 -0.00048297 -1771.41975379 1018.51666205 -3591.56694402
132 1 13.377649 18.859794 15.579165 0.01648999 0.02453975 -0.03932414 185.74965077 -99.06092907 -51.78696902
133 1 7.286080 15.927796 20.845404 -0.01121032 -0.01975991 0.01685823 0.00625945 -0.00027691 -0.00277380
134 1 4.566299 14.040188 9.121217 -0.01796619 -0.00616106 0.03029980 0.00046908 -0.00004805 0.00011668
135 1 3.667902 2.290310 12.771941 -0.02887107 0.04189463 -0.00068819 0.00009534 -0.00008836 0.00003492
136 1 22.124414 19.485350 9.632914 0.00655424 0.00593819 -0.00788255 -0.00015923 0.00015438 -0.00007870
137 1 9.305049 0.547410 9.567801 0.00896484 -0.03319290 0.00745099 1505.39164332 3462.96562147 -3920.62773309
138 1 11.133787 3.831162 14.921936 -0.02381936 0.01409270 -0.03797503 -0.00009631 0.00009539 -0.00007065
139 1 29.170961 9.769582 0.812399 0.03531757 -0.01758939 -0.00447776 -0.00022299 0.00032802 0.00018818
140 1 22.853078 20.256103 14.441137 -0.03322649 0.01895678 0.01888184 0.00057928 0.00171974 -0.00131561
141 1 26.243208 16.772988 6.418888 0.03090520 0.00793988 0.07042420 -44481.26842255 -18504.09216474 55997.55254623
142 1 22.414240 30.625053 4.193822 0.00232101 0.02533647 0.01630738 7.24779421 -0.28650142 -1.11251116
143 1 25.218971 16.408318 30.033736 0.02490848 0.04331445 -0.00264812 0.00005348 0.00005296 -0.00005159
144 1 29.493513 29.368496 22.069380 0.02397628 -0.00104056 0.00227115 0.00001468 -0.00022930 -0.00003193
145 1 24.599910 29.192602 14.421779 0.05690389 -0.01815756 0.01162599 0.00013915 0.00026477 -0.00011438
146 1 31.437423 23.687070 13.495678 0.00734068 -0.01425961 0.02146009 -0.00034150 -0.00008659 -0.00007750
147 1 13.950889 21.243626 25.023276 0.00758647 0.00964871 0.00885154 -0.00076188 0.00035076 0.00026178
148 1 20.657640 15.712310 4.336582 -0.01911227 -0.01973199 -0.00187106 0.00018520 -0.00047825 0.00073375
149 1 4.250958 15.693723 19.562708 0.05687407 0.00950509 0.01444270 -0.00014783 0.00003597 0.00022745
150 1 1.804842 22.545495 24.817239 0.01912644 -0.01609380 -0.00384417 0.00004845 0.00020228 -0.00002129
151 1 31.313941 29.050650 4.311831 -0.05552963 0.02067829 -0.00033484 -0.00003016 -0.00013432 0.00009081
152 1 27.971187 23.186932 31.052726 0.04090304 0.04948958 0.05147432 0.00005727 0.00018185 0.00002487
153 1 6.121276 9.464998 6.502960 -0.02311963 -0.00532286 0.00000071 -0.00026368 0.00055067 0.00196235
154 1 10.370604 8.420593 21.463916 0.01294259 0.05708258 -0.05364478 -0.00006304 -0.00004343 0.00000350
155 1 11.171733 24.004395 22.387288 0.01220654 -0.01306476 -0.00200876 -73.90512078 -1.58311220 -5.71191199
156 1 26.098452 23.713216 16.100202 0.01232369 0.01211470 -0.01630144 0.00173762 -0.00051873 0.00000988
157 1 21.907390 2.507848 16.026208 0.04898535 -0.01400648 -0.02774142 0.00070187 -0.00019177 0.00020498
158 1 0.530450 27.714549 16.620746 -0.05503202 -0.01869308 0.03256930 0.00018569 0.00008623 0.00003944
159 1 18.345236 24.477417 29.739620 -0.09280269 0.07182612 0.01023169 210596781.17829531 72820279.58578412 -207862263.98431721
160 1 11.562721 28.311496 1.775128 -0.00962528 0.00199258 -0.01263479 0.00105643 -0.00174734 0.00006306
161 1 13.149115 15.226857 7.929539 -0.05463740 -0.01159664 0.02267082 -0.00004041 0.00013462 -0.00042075
162 1 4.617994 6.508405 22.373704 -0.04521496 -0.00328352 0.00316430 0.00030313 0.00010448 0.00011775
163 1 10.591221 18.161666 1.874816 -0.00860041 -0.01065498 0.00359813 -0.00004743 0.00000794 0.00000222
164 1 11.648965 29.972174 6.951831 -0.03804477 0.02009269 0.05671359 0.00245211 -0.00242746 -0.00164091
165 1 3.027349 0.759231 4.520132 -0.00601356 -0.03130686 -0.02002195 2308.14143136 -2026.18122051 692.29343508
166 1 3.645467 23.599278 9.687987 0.00828235 0.00933120 -0.05290389 -207507371.95379969 -63271277.28360716 -135415506.98274171
167 1 13.675161 18.797818 5.625281 -0.01781708 -0.05499829 0.00373814 0.00006854 0.00005726 0.00004214
168 1 15.840221 13.269127 27.313662 -0.01793478 0.01515319 0.00723800 0.00004635 -0.00012026 0.00018625
169 1 2.384318 10.335368 2.458525 0.00349565 -0.00765354 -0.03489112 -0.00059049 0.00035443 0.00004886
170 1 3.454966 2.120552 16.373401 -0.01454940 -0.00691657 0.02258110 70.58130360 -3.65642609 -97.08699595
171 1 15.731086 11.092027 0.685691 -0.00344143 -0.05474293 0.02623608 0.00005481 -0.00005930 0.00006844
172 1 17.567749 8.598901 17.305253 0.01179744 0.04858600 0.02308516 -19538.21755091 -54302.91809122 5551.19609759
173 1 6.062243 21.383973 29.244524 -0.03640975 0.04174948 0.02048492 0.00014549 0.00000724 -0.00019940
174 1 3.763324 9.443542 3.568881 0.00534005 0.02538204 0.00921407 0.00479671 -0.00189459 -0.00028363
175 1 1.174979 28.953916 2.179373 -0.03048144 -0.05723543 0.01851848 -0.00031972 -0.00061951 -0.00040526
176 1 21.233438 14.558918 10.279409 0.01138696 0.02460929 0.03286549 0.00056930 0.00010296 -0.00030636
177 1 4.838781 13.697519 2.147962 -0.03898151 -0.02806254 -0.01318099 -218.96821354 54213.95052226 57211.72825325
178 1 0.250351 11.308559 14.918243 -0.02583689 -0.01506849 0.01551954 0.00007362 -0.00006523 -0.00013731
179 1 20.714798 20.631055 10.757960 -0.00646260 -0.01407495 0.02504499 51.87135312 -53.57518490 45.20960402
180 1 11.056212 18.310735 13.336757 0.00547281 -0.00187892 0.02392536 -0.00212166 0.00199116 -0.00101898
181 1 21.914559 4.498964 12.733579 -0.01549555 0.02924564 -0.00231358 0.00117254 -0.00047278 0.00027179
182 1 14.021284 30.270268 5.417486 -0.01867139 0.02404810 0.05292470 0.00007441 0.00024290 0.00009540
183 1 8.355639 18.575245 14.271809 -0.00826769 0.02171067 0.01138317 -0.00056598 0.00026412 -0.00017613
184 1 16.224603 14.378855 10.714829 -0.03402314 0.02846411 -0.05063767 122.25967939 -206.74655187 126.15230772
185 1 12.413279 21.853539 10.340927 0.00451352 0.01724710 0.02073521 -515.19001906 4669.15931236 5806.50422392
186 1 15.885903 29.569891 18.909983 -0.00841360 0.02391869 -0.03642957 0.00073614 0.00030626 0.00048126
187 1 27.242283 3.216612 11.335590 -0.03211689 0.03822194 0.01336965 -0.00007503 0.00007911 -0.00018205
188 1 2.518879 4.122350 5.926316 0.02696305 -0.02412164 -0.05561209 -0.00038304 0.00200740 0.00079592
189 1 0.924629 21.099321 13.190668 0.01827844 -0.01985077 -0.00785590 -0.00021229 -0.00021226 0.00017407
190 1 10.509835 1.021234 16.171731 0.01487228 -0.10391958 0.00763770 -0.72068045 -0.89686187 -0.26049733
191 1 15.498830 11.664397 0.406612 -0.02645222 0.00678462 0.05213550 -0.00009113 0.00011277 -0.00006705
192 1 23.840937 8.135843 28.842420 0.00909681 0.02122972 0.00566482 -140.16565680 300.90231973 -89.02937459
193 1 14.260487 12.834869 17.666226 -0.00305243 0.03236974 0.00469338 0.00015301 0.00002070 0.00006270
194 1 29.542931 12.581381 21.924788 -0.00317099 -0.00632405 -0.03817990 0.00010631 0.00008273 0.00003755
195 1 23.704870 21.717862 5.790130 -0.02993211 -0.00993854 0.05507488 0.00093504 -0.00092770 0.00010139
196 1 27.923935 25.535346 7.366103 -0.01654018 0.08150052 -0.04287935 -0.00007601 0.00003358 -0.00007932
197 1 20.571097 4.282208 28.348107 0.00843283 0.02465485 -0.00720216 1.55772635 0.98928418 1.40981130
198 1 11.127394 9.428642 2.009469 -0.00697101 0.04674163 -0.02415109 0.00036360 0.00005206 -0.00017638
199 1 17.209418 2.937554 10.441891 -0.04216927 -0.01240070 0.00297901 -0.00028782 -0.00077571 -0.00091289
200 1 29.329287 16.841715 8.473934 0.03700171 -0.00981023 -0.01354552 0.10955376 -0.08087436 0.04645564
201 1 16.078029 7.145964 24.152401 -0.01474392 0.02451955 -0.04296499 -0.00019113 -0.00006599 0.00013014
202 1 24.596646 27.773973 30.591618 0.03505366 0.01729173 0.00956783 -0.00025257 -0.00019534 -0.00024706
203 1 18.962077 4.808186 3.030637 0.06443358 -0.00334702 -0.03012108 0.00008684 0.00014525 0.00011528
204 1 7.617300 13.591698 15.627568 -0.03196841 0.01543077 -0.03559392 -17.33697752 28.34010229 -54.35936808
205 1 17.481216 23.247594 14.170710 0.00882865 -0.03215545 0.01451304 -0.00032077 0.00001960 0.00020113
206 1 10.406623 13.965958 2.729331 0.04870276 -0.03342258 -0.02555385 0.00027255 0.00003083 0.00013177
207 1 23.713996 27.507994 14.332721 0.02677090 0.00814813 0.05867444 0.00100738 0.00192439 -0.00146881
208 1 15.715670 23.233779 5.294371 0.05115561 -0.01810783 -0.02123902 0.04069248 0.41790741 -0.04979605
209 1 30.286906 6.090672 28.590904 -0.01055288 -0.00134203 0.02510474 1771.42377646 -1018.49682281 3591.57204781
210 1 21.325009 5.966468 5.323776 -0.03314389 -0.02329007 0.01127008 -19.50525465 -13.18436940 23.42186554
211 1 15.929711 3.099954 19.302139 0.00563061 0.01186073 -0.03750561 669075.17615020 10057.26590203 -1117359.21863396
212 1 20.899674 25.077367 0.689422 0.02382918 0.03292512 0.02084109 0.00179903 0.00084680 0.00087385
213 1 27.107225 17.972921 6.795056 -0.04355392 0.01106688 0.00294795 -76.97538186 -106.90192041 -33.51288092
214 1 23.299099 23.142230 3.571173 -0.00087939 -0.05469198 0.00553730 0.00158729 -0.00070956 -0.00072518
215 1 18.994313 25.153560 9.010902 0.02396840 0.01597889 -0.05225056 -0.00009184 0.00068942 0.00100799
216 1 13.658456 27.968508 19.924800 0.04049988 -0.01018449 -0.02236900 2071.68216531 759.92768600 -228.49900308
217 1 6.113072 18.882051 3.326961 -0.04172738 -0.00517160 0.01091231 0.00022250 0.00019680 -0.00004784
218 1 0.286372 5.063337 1.228113 -0.05896118 0.00316811 -0.04899320 0.00071224 -0.00031766 0.00220875
219 1 4.859085 12.453622 25.976923 -0.04427134 0.03235766 0.02772052 0.00012243 -0.00011410 -0.00007100
220 1 7.789304 15.122171 1.142081 -0.01351960 0.00127970 -0.00684114 0.00215047 0.00127156 -0.00087028
221 1 8.645366 3.333249 13.649079 0.02239248 0.04256767 -0.01744338 -16227.32791083 -83144.79525598 -6455.01499788
222 1 17.041101 21.149805 22.695293 -0.00885714 -0.04456652 0.00592770 0.42447720 -0.47653012 0.60768407
223 1 15.077668 17.648268 18.422290 0.03571499 -0.00723318 -0.03719373 1.73080632 1.99997424 -1.32825855
224 1 4.277708 5.581156 11.200514 -0.00468008 -0.01809078 -0.01255426 -0.00110911 -0.00074186 -0.00159677
225 1 2.028959 3.242465 28.467271 -0.03165369 0.00062288 -0.02702147 0.00125900 -0.00098818 -0.00045306
226 1 30.313471 29.490392 12.175672 0.00095453 -0.02191744 0.03238480 0.00016812 -0.00007628 -0.00011751
227 1 10.946585 17.985323 27.310024 -0.03229414 -0.00114303 -0.00492634 0.00013479 -0.00006597 0.00017878
228 1 27.037367 17.083981 15.277571 -0.02852420 0.03092496 0.00391465 0.00056016 0.00002251 0.00016157
229 1 25.420958 1.619955 1.816756 -0.01395309 -0.01586490 0.01934768 0.00089086 0.00191487 -0.00147044
230 1 10.756489 24.764863 3.117913 -0.03983393 0.02083989 -0.03684652 -0.00009195 -0.00008644 -0.00022006
231 1 25.956334 17.836336 3.275619 0.01544683 0.04621604 -0.01006394 -0.00013464 0.00087082 -0.00224173
232 1 30.662891 23.536013 29.248856 -0.01423336 0.01668392 0.02726299 -0.00015566 0.00034657 -0.00023591
233 1 31.182033 4.281699 7.305105 0.03116894 -0.00878463 -0.03228365 -0.00017265 0.00018939 -0.00002299
234 1 28.521581 11.176838 21.855523 0.02429982 0.02787593 0.02590632 0.00013023 0.00003070 -0.00003317
235 1 2.467484 19.489988 13.963532 0.05360242 -0.05802804 0.03468061 -0.00005159 -0.00007086 0.00017825
236 1 24.407476 27.315380 1.522015 0.00667432 0.01737456 -0.01250508 0.00024278 -0.00134268 -0.00113554
237 1 9.336118 13.663906 5.526677 -0.01966495 0.02260923 0.02160542 -9412094.56314801 2185255.54918680 -3288769.88596101
238 1 17.965900 5.984607 30.112174 0.04959502 0.02134095 -0.00849213 -0.00142715 0.00044133 0.00017579
239 1 31.274688 0.544583 0.162877 -0.03849145 -0.01435481 0.01214845 -9529747.05551174 -3327583.74619295 -6123826.69155116
240 1 5.971395 21.735283 23.119212 -0.00153895 -0.03182380 -0.01703411 283554.99671588 400282.40300049 -177793.33644022
241 1 28.194801 29.790341 23.936013 0.02396188 0.00487816 0.04078750 0.00004104 -0.00004563 -0.00014060
242 1 0.833700 8.991648 4.832119 -0.03877638 0.02794783 -0.00749442 -0.00011850 0.00003477 0.00006612
243 1 29.222903 30.143828 30.652356 -0.00777888 -0.05709902 0.00367178 33240932.67723263 3001495.68784796 37870841.32220627
244 1 7.122653 6.811107 5.272780 0.01126605 -0.00042610 -0.00792951 -0.04545450 0.12175637 -0.14723628
245 1 29.616969 20.198047 27.838973 -0.00505387 0.02255485 0.02160648 0.00289204 -0.00352132 0.00226311
246 1 2.347584 24.192380 1.993495 -0.03363924 -0.04295109 -0.01881668 0.00026255 0.00083704 0.00008046
247 1 13.376922 19.421311 0.478290 0.04691318 -0.01515285 -0.01490999 6796.30688834 -20479.71859235 -8151.58240222
248 1 13.412712 11.478697 25.369270 0.02336538 0.05399308 0.00075296 -0.00002291 0.00000890 0.00011108
249 1 29.406171 31.145211 7.407330 -0.01411223 -0.01680419 0.04199704 -0.00002649 -0.00010466 0.00024891
250 1 29.724996 26.482758 14.012558 -0.02646648 0.00874133 0.04944072 0.00006543 -0.00000850 0.00016383
251 1 4.763459 29.849215 23.188815 -0.01387444 -0.00263586 0.03075042 0.00006631 -0.00007530 -0.00000261
252 1 6.917759 23.567379 13.500922 0.01121177 0.03444344 0.04562564 0.00017929 -0.00002394 0.00017753
253 1 16.488464 3.229738 11.095563 0.01184903 0.01001486 0.01735054 -0.00097323 -0.00040327 -0.00159966
254 1 0.988739 12.349081 1.493996 0.04128995 0.03061230 -0.08127763 42.41437404 590.76477873 503.54192376
255 1 9.970952 3.304783 15.218801 0.02607017 -0.01255146 0.05157993 -1.67937313 -0.08762872 -1.97169676
256 1 25.916565 21.612110 27.992529 0.00278687 -0.02071856 -0.01590614 -1896743.97331634 5214141.32738451 11558144.79025958
257 1 12.481057 7.339366 11.420216 -0.02757910 -0.00095932 0.01769596 -0.00006809 -0.00004994 -0.00006228
258 1 26.987079 28.095725 27.715075 0.01840947 0.02907379 -0.01156174 -0.00063657 -0.00074202 -0.00067963
259 1 22.700368 0.100719 24.510740 -0.00191266 -0.00951680 0.02355336 0.00018330 -0.00054842 0.00008066
260 1 14.150654 8.089464 27.111077 -0.01861608 -0.03115171 -0.04180595 -0.00015380 -0.00001593 0.00003139
261 1 31.162785 8.946903 24.526644 0.00560640 -0.05405002 -0.04623754 678567.86325619 -66879.20394278 -771545.11194131
262 1 16.992528 18.589816 3.818147 -0.05340665 -0.04584010 -0.04107987 -0.00089897 0.00015089 0.00186359
263 1 29.410514 24.596755 22.449606 -0.01120535 0.01815974 0.00415781 -0.00002622 -0.00009396 0.00002350
264 1 2.338656 6.867489 11.629960 -0.02750819 0.00341463 0.00228174 -0.00063581 -0.00007135 -0.00060066
265 1 30.785037 2.378602 21.228766 -0.05932607 0.00258514 0.00198994 2.75118588 1.72241807 -2.09835254
266 1 15.323480 9.739641 7.846569 0.03054812 -0.03010693 0.01250204 -0.00041738 -0.00004674 -0.00031783
267 1 14.236709 20.749584 25.367155 -0.00250981 -0.01949974 0.06275742 -0.00122921 0.00024104 0.00044787
268 1 13.581618 12.052607 11.932799 -0.00190074 0.04695095 0.01927225 6.58594740 -42.79775884 24.54087846
269 1 25.900644 20.292095 29.757779 0.03090375 -0.03054315 -0.00087985 0.00733549 0.60824369 -0.81341654
270 1 23.724272 4.763863 2.247466 0.02613231 -0.05463211 -0.04734171 0.00116586 -0.00044540 -0.00023407
271 1 26.986528 25.482572 27.531181 -0.01354380 0.01113925 0.02767776 0.00038026 0.00139498 -0.00021885
272 1 30.781342 13.391905 3.364713 0.03087389 0.03484450 0.02527166 0.02164532 -0.01330737 -0.02381148
273 1 7.505590 18.623139 21.328753 -0.00013046 0.00925587 0.01740234 -0.00024936 -0.00069223 -0.00036174
274 1 2.732065 14.425544 27.302550 0.04961184 -0.01337067 -0.03423478 0.00008045 -0.00026781 -0.00033083
275 1 6.334887 8.915183 14.880702 -0.02537501 -0.01728882 0.02925952 -6.17650490 -40.46319418 -25.09573013
276 1 8.155915 9.373955 12.958023 -0.00908058 0.00340444 0.04602984 -0.00585386 -0.00578636 0.00288204
277 1 16.951922 29.531833 26.269049 0.00540998 0.00169145 -0.04590562 -0.00006973 0.00019129 0.00004832
278 1 10.785015 14.127514 5.544821 -0.01844732 0.03395601 0.02665211 -140.18785706 -43.56677667 -2.19968342
279 1 16.589452 22.304923 7.099047 -0.01405924 0.00007994 -0.02106233 0.00017081 -0.00180398 0.00084415
280 1 18.942316 28.222139 2.574205 0.00016533 0.02174971 -0.01641140 0.00027690 0.00082277 -0.00049119
281 1 5.705821 21.660811 25.263076 -0.01164859 0.02364565 -0.00499317 0.16323212 0.04562340 -1.31880750
282 1 15.012804 28.018297 21.856020 -0.02432785 -0.02434022 0.01106751 -0.22451295 -0.00830901 -0.32028113