ITEM: TIMESTEP
0
ITEM: NUMBER OF ATOMS
2032
ITEM: BOX BOUNDS pp pp pp
0.0 30.917009
0.0 30.917009
0.0 30.917009
ITEM: ATOMS id type x y z vx vy vz fx fy fz
1 1 8.731679 29.959833 15.794987 -0.01017694 0.02219741 -0.02971141 -0.00013345 -0.00010896 -0.00022926
2 1 0.468004 20.674211 13.736645 -0.04048563 0.01729707 0.00374757 -0.00005219 -0.00007167 -0.00010721
3 1 30.668231 23.975977 24.791740 -0.04637828 0.01353840 -0.03160741 19.46070645 5.93451304 25.03891783
4 1 28.143258 17.887720 19.953766 -0.02042300 -0.01806126 -0.01280279 -0.00011876 -0.00009551 -0.00013080
5 1 20.304906 30.181084 15.012273 0.02481239 -0.02495809 -0.03244597 0.00011643 0.00007301 0.00014534
6 1 15.839352 7.447620 25.434354 -0.04573425 0.01448000 -0.01700590 0.00021266 0.00003811 -0.00019474
7 1 27.814993 6.244973 15.242573 0.01373484 -0.04386508 0.00002752 0.00000373 -0.00018550 -0.00001867
8 1 14.601319 25.642876 7.500094 0.00244216 -0.01542200 -0.01504232 -0.00011914 0.00003588 -0.00015756
9 1 25.499588 23.322749 22.637094 0.03304807 -0.00587746 0.00935445 0.00005271 -0.00011009 0.00006639
10 1 21.555277 22.498792 11.105478 0.01096356 -0.03323578 0.00238620 -0.00014067 0.00019759 -0.00019777
11 1 23.134567 7.513832 18.319706 -0.04215361 -0.00362660 0.01878976 0.00004606 -0.00006215 0.00000332
12 1 27.886748 10.056417 7.878953 0.02576645 -0.00324164 -0.00112711 0.00001185 -0.00007740 -0.00004257
13 1 7.124618 10.989061 16.427742 0.05753860 0.04869630 0.01286818 0.00012043 0.00002666 0.00004502
14 1 27.901918 26.448790 12.585527 0.02863315 -0.00222827 -0.02579582 0.00012786 -0.00000240 -0.00002323
15 1 4.427064 1.829279 23.808560 0.00140046 0.01187411 0.00832799 0.00012240 0.00005599 -0.00002035
16 1 12.378415 22.798370 29.595326 -0.00903340 0.06852528 -0.01343540 0.00012588 0.00011063 -0.00008620
17 1 27.561796 3.413314 3.466241 -0.02172921 0.06617769 0.02408203 -1325.20501883 1627.62577388 -1369.20241991
18 1 3.046277 21.033305 22.725860 -0.00099149 -0.03114198 0.06078981 0.00031011 -0.00022561 -0.00026253
19 1 24.544106 23.704968 6.127526 0.05442003 0.09485372 0.02261180 -0.00017385 -0.00006155 -0.00008803
20 1 11.904702 16.300207 4.373503 0.00788343 -0.02615623 0.00021947 0.00008298 -0.00003357 -0.00012724
21 1 6.883950 17.036898 21.289012 -0.03565906 0.00451581 0.00466214 -0.00023868 -0.00001150 -0.00013900
22 1 26.380899 17.947639 21.530227 -0.00973268 0.00040871 -0.02622261 -0.00008999 0.00006877 -0.00001769
23 1 26.658403 13.940553 14.193083 0.00253720 -0.02787865 -0.00469540 0.00010057 0.00012801 -0.00016582
24 1 26.011006 3.211240 18.281142 0.01996420 -0.03515103 0.02919698 -0.00002980 0.00008516 -0.00002866
25 1 13.034610 22.047419 18.977084 0.02620231 -0.05846713 0.01533965 -0.00003097 0.00022129 0.00005211
26 1 15.073137 28.788988 27.660542 -0.00150736 -0.01372040 -0.04234813 0.00007581 0.00010122 -0.00007289
27 1 10.950177 0.917297 1.659049 -0.05745827 0.01571930 0.08237948 0.00002256 0.00016773 -0.00004528
28 1 8.136275 0.423546 21.672454 -0.04802632 0.04501689 0.00806149 196.19763949 -7.88105222 -510.47462151
29 1 16.348544 6.950444 22.671585 0.00318942 -0.01253103 0.03867870 0.00000379 0.00007769 -0.00011182
30 1 20.833740 19.382548 1.641402 0.01927646 0.03671634 -0.00983786 0.00000702 0.00010693 -0.00004601
31 1 15.212578 23.120726 5.848295 0.00596064 0.05406033 0.03568455 -0.00021968 0.00009334 0.00000760
32 1 24.794234 0.019701 5.227787 -0.03066330 0.02438050 -0.00573540 -0.00018344 -0.00051965 0.00012082
33 1 28.580133 26.270477 3.883903 0.03752750 0.01647772 0.02099131 318767.56352340 -2289031.53827861 521935.45618377
34 1 1.213639 9.680941 15.922653 -0.02231260 0.00694877 -0.01397988 -0.00007845 -0.00003881 -0.00011511
35 1 27.006487 2.238724 25.324623 0.03842937 -0.03119478 -0.02843863 0.00007924 0.00019433 -0.00007492
36 1 27.584629 3.771741 6.255046 0.02564842 0.00672576 0.00476879 -0.00014898 -0.00297378 -0.02364473
37 1 21.920194 30.484748 0.959298 0.02207575 -0.02703452 -0.00015440 101.61735815 -70.57450796 -66.28139803
38 1 29.872125 11.808607 19.682986 0.05484040 0.02858394 -0.01962924 0.00013317 0.00012791 0.00004753
39 1 4.900489 0.844377 19.818129 -0.05752943 -0.01542039 0.04842923 -1209.25491365 335.74804170 -2003.85273175
40 1 23.479161 3.516373 20.778809 -0.02118037 0.04125263 0.03466431 -0.00008477 0.00016050 -0.00001283
41 1 3.305156 3.989804 17.343567 0.00996713 0.05296507 -0.02861101 -0.00051268 0.00088995 -0.00055332
42 1 30.725122 13.866175 17.495329 -0.04437447 0.05818072 -0.04849095 -0.00009704 0.00005795 -0.00018777
43 1 21.366685 18.953251 25.838713 0.04586886 -0.03534920 0.02579256 -0.00001571 -0.00018283 0.00019658
44 1 26.413846 0.919853 30.393841 -0.04827655 -0.02738620 0.03318517 0.00043180 0.00001646 -0.00045760
45 1 27.854028 14.516786 15.847180 0.00373620 -0.02879201 0.01092206 0.00002696 0.00004404 0.00003386
46 1 21.052945 27.328307 8.443027 0.00177629 0.00878040 0.01850463 -70.54399097 -19.77614116 138.49172107
47 1 20.211496 18.771985 0.841141 -0.03311224 0.01044161 0.04156845 -0.00011250 0.00008809 0.00001442
48 1 12.040272 8.048517 2.655983 0.05591075 0.03193316 0.01806168 0.00020619 0.00013903 0.00000701
49 1 27.240549 29.948302 29.109210 -0.05189576 0.02769279 -0.01820476 0.00013676 0.00009565 -0.00020624
50 1 5.059625 17.804527 26.322685 0.03051549 -0.03586237 -0.00245188 6163.83706192 -7941.21556061 4798.27197105
51 1 23.169649 4.723093 20.210664 0.00990627 0.00623948 0.00729714 1754.32146473 -54859.04262529 47.43293559
52 1 17.326814 15.803686 16.350521 0.04936561 0.00606402 0.02103572 0.00003865 0.00007086 0.00000984
53 1 17.812493 29.079535 1.595913 -0.00276377 0.04932927 -0.00164737 -0.00073080 -0.00023378 0.00005575
54 1 12.613012 16.324038 21.191864 0.01504387 -0.04979279 -0.06156815 -0.00007666 0.00000068 -0.00012378
55 1 14.592921 10.152081 17.882197 0.04589613 -0.00624029 0.01045049 645.85822850 810.53824979 -2863.18860822
56 1 2.905102 3.308001 0.115713 -0.01858338 0.04872614 -0.00604118 0.00013619 0.00001926 -0.00008674
57 1 10.317953 27.633733 9.014148 -0.02322926 -0.03444435 0.01613026 0.00024709 -0.00017987 0.00004051
58 1 7.290146 26.946219 16.983329 -0.00414285 -0.01139146 0.02166793 0.00005483 -0.00013899 -0.00003107
59 1 26.687470 3.371043 1.433534 0.03725722 0.00077174 -0.03629494 150.83615270 268.18545393 88.59525473
60 1 27.005283 17.878127 28.389489 0.00708834 -0.02876122 0.00111876 0.00013108 -0.00009229 0.00010644
61 1 10.610032 14.599153 28.554291 -0.00771429 -0.03422513 0.01301252 0.00017281 -0.00005879 0.00017640
62 1 19.462167 28.272452 29.046527 -0.00533568 0.04141097 0.00519715 -85458.83626549 -39124.17434288 -78620.42522166
63 1 2.002082 14.522524 19.598117 0.03239700 -0.00526746 -0.03132123 -0.00005080 -0.00004088 -0.00001366
64 1 27.188133 10.563753 17.944480 -0.07053734 -0.00496374 -0.00639829 40.47511079 12.39986263 45.25017391
65 1 12.075727 11.159132 16.829662 -0.02907757 0.01932313 -0.03682707 0.01004345 -0.00382480 0.00421406
66 1 9.477416 2.065922 2.927035 0.00383833 0.02961485 -0.02462957 146.02764623 -314.20324506 22.63514444
67 1 5.293831 12.961596 3.773694 -0.02167923 0.01374143 -0.00644102 12.67695987 50.90351448 39.93054539
68 1 18.324060 19.791055 26.151888 0.00373318 0.01676800 -0.07221779 -0.00004549 -0.00004004 -0.00009413
69 1 11.896775 6.097969 27.437017 -0.02793779 0.00977879 -0.00417107 0.00009589 -0.00008186 0.00011777
70 1 6.994709 29.718356 26.287633 -0.01478963 0.07718282 -0.00060605 8891.53425575 7218.34302209 -19791.84749484
71 1 15.602479 9.869310 16.824545 -0.02421487 0.04309360 -0.03668926 -126.47274322 35.42425094 132.49776787
72 1 22.986770 27.037643 3.885980 -0.02630675 -0.02566934 0.02698223 0.00021240 -0.00039788 0.00006538
73 1 10.850592 7.744895 11.921751 0.02274441 0.02858989 -0.06206448 0.00005728 -0.00005860 -0.00005349
74 1 11.963319 18.644038 9.907312 0.02145046 0.05222883 -0.03153313 0.00016239 0.00001288 0.00016546
75 1 1.768215 23.216181 11.998647 0.02728965 -0.00886978 0.04991950 0.00000777 0.00001996 0.00006930
76 1 27.334680 0.411443 21.547516 -0.00095591 -0.03181503 -0.02015737 0.00012252 -0.00011436 -0.00005546
77 1 0.286777 10.900817 29.095751 -0.03673147 -0.01976719 -0.01363222 0.00001005 0.00002680 -0.00009216
78 1 2.389050 24.631671 2.643405 0.00032260 -0.06486364 0.03252512 0.00027961 0.00000164 -0.00002497
79 1 26.446712 7.294591 17.125873 0.04578964 -0.01703069 -0.05463984 -0.00043694 -0.00227205 -0.00073363
80 1 7.666384 25.850629 1.602581 -0.06116369 -0.01235303 0.01545379 0.00016786 -0.00010917 0.00003565
81 1 1.249737 30.721212 4.282143 0.01800142 -0.01447190 0.00613175 0.00012075 0.00010185 0.00017121
82 1 0.538289 20.504312 15.589014 -0.01769725 0.01580031 -0.00271325 -3273.55995172 10562.51594696 12765.99923837
83 1 10.909367 8.609159 12.912702 -0.03778425 -0.01075201 0.01843537 4744243.05550584 -17557174.72728980 4298936.72158290
84 1 8.931086 9.574117 0.925172 -0.02125020 0.02240319 0.00567451 0.00018413 -0.00006960 -0.00015370
85 1 23.229921 18.309730 6.298592 0.02784424 0.00129184 0.00564224 -0.00029470 -0.00014973 -0.00020859
86 1 15.911673 4.286035 25.517817 -0.00519497 0.05116545 -0.00973008 -4.99843380 -26.77906850 8.22653723
87 1 25.840850 30.207074 19.157800 0.03299861 0.04679806 -0.00867921 0.00008405 0.00003325 -0.00003180
88 1 20.610979 18.887894 20.048890 -0.01345294 0.00500603 0.02114399 -0.00005769 0.00007926 0.00023734
89 1 1.765502 2.367371 19.251419 -0.02773474 -0.02033176 0.00767226 -0.00239546 0.00130778 -0.00032012
90 1 9.934901 2.650986 0.070011 0.02208172 -0.01691105 -0.01209208 -0.00123834 -0.00147088 0.00777973
91 1 2.585049 8.950384 1.955658 -0.01776896 -0.01481715 0.01051644 10077369.09646731 46808239.34952299 11603904.82307593
92 1 6.734303 0.270245 30.229576 0.01615302 0.01254340 0.00503985 -0.00027414 0.00021708 0.00073438
93 1 23.419650 21.290230 22.913320 0.08788516 -0.04306342 -0.04520848 18692611.16561694 10390928.92161367 43700048.05260694
94 1 27.849740 27.652917 16.989368 0.01859479 -0.03398532 0.02233151 -0.00017337 0.00004877 0.00021721
95 1 27.773981 1.344516 30.193671 0.00813878 -0.00406155 0.00829217 0.00014947 -0.00050370 -0.00079584
96 1 4.780162 14.087065 26.305617 0.02640764 -0.02781406 -0.02096260 -0.00000035 -0.00231112 -0.00008513
97 1 2.084433 0.400087 26.381918 -0.00982187 0.05228461 -0.02008025 -0.00038765 -0.00002855 0.00002478
98 1 4.992964 20.860045 22.067089 0.00169447 0.01121354 0.03868742 -0.00000828 0.00016171 -0.00034610
99 1 25.753787 3.394984 14.098314 -0.02065258 0.05521110 -0.00184011 0.00000817 0.00005008 0.00016776
100 1 2.456131 1.715685 23.618691 0.01048425 0.00140654 -0.01643849 -0.00054960 0.00022331 0.00048178
101 1 16.074320 9.214930 14.141499 0.01135219 0.02881062 -0.01303955 0.00091306 -0.00027136 -0.00113198
102 1 16.399900 6.216598 4.814319 -0.02898095 -0.02088015 0.08254111 8383.79086665 20663.75842997 -3288.00966882
103 1 5.317916 19.741107 29.716039 -0.04005121 -0.00189081 -0.03694005 0.00004601 0.00103605 0.00151504
104 1 23.666157 25.888282 12.909756 -0.00860840 -0.02356862 -0.03694228 0.00009059 -0.00022218 0.00002605
105 1 9.885750 9.377985 26.526338 -0.00587373 -0.00076316 0.00338630 -0.00003384 -0.00006135 0.00007981
106 1 13.826386 3.621231 0.133373 0.00578756 0.00169140 -0.02757552 -271.73737321 -1099.32853207 -9.63706025
107 1 29.213396 22.718855 20.965035 0.03629789 -0.02367050 0.01228596 -0.00043578 -0.00048755 -0.00098398
108 1 15.888993 29.439535 29.281277 -0.00738784 -0.03519043 0.00346894 -7956.81216681 7554.63021799 4876.14913827
109 1 3.852266 12.502294 1.794742 0.04387339 -0.00590970 -0.01536069 0.10282448 0.03484504 0.14047672
110 1 6.419258 24.120926 9.086092 -0.03802487 0.00640531 -0.03377095 533.49781305 -1240.26201374 -192.12535523
111 1 22.679782 17.158559 26.466083 0.03098763 -0.00618651 0.02011850 -0.00003299 -0.00010566 0.00028081
112 1 10.028627 19.846559 15.870591 -0.01926431 -0.00238390 -0.02211157 0.00017999 -0.00006035 -0.00012835
113 1 18.815231 13.353805 17.495639 -0.02812702 0.01107660 -0.01754664 245092.66063636 -111748.35537308 -48010.12582445
114 1 2.879111 21.732057 30.162051 0.00479607 -0.04107234 0.03552598 1665298.05318591 1518813.06275471 1207752.56404192
115 1 8.501097 25.083612 22.908049 -0.00131138 -0.00657331 0.01160203 0.00006177 -0.00013608 -0.00012251
116 1 11.529354 14.680357 13.824476 -0.03181796 0.00761016 0.05319286 0.00003626 0.00009743 -0.00011057
117 1 30.018964 4.022172 30.878273 -0.02430138 0.03601014 0.01293901 0.00254642 0.00048967 -0.00181416
118 1 17.147739 20.895438 12.474052 -0.01367419 0.02917938 0.07764844 0.00000975 0.00006571 -0.00024056
119 1 6.828612 16.684880 9.209861 -0.01186026 -0.04107957 -0.00282397 7428.28745830 -17968.52623086 1865.19774049
120 1 23.261381 29.938746 20.503338 0.02045476 -0.00714967 -0.02442732 5.48801067 2.15065366 19.66105031
121 1 24.567519 11.033210 7.788348 0.01601361 -0.01692413 -0.02252438 -0.00017321 0.00003960 -0.00019150
122 1 30.361871 7.080136 24.195900 0.05266282 -0.03370581 -0.05337865 373.76024791 4.03546895 -621.83482105
123 1 0.362003 25.371761 28.020647 0.00565001 -0.05551549 -0.03706602 -47995.13456753 -35273.87957594 -8350.46499042
124 1 9.913162 8.187852 27.970091 -0.01460595 0.01803189 -0.01090944 -0.00003710 0.00012934 -0.00012241
125 1 21.140213 10.841441 19.247510 -0.01560830 0.04860801 -0.04277230 0.00115947 -0.00116488 0.00097091
126 1 16.415916 17.091616 9.728643 0.00311249 0.03689766 -0.09085154 0.00012132 0.00013250 0.00018145
127 1 0.509669 26.529948 6.496027 -0.04591357 0.00153781 0.04649089 3837.79605238 -2725.74559026 -1004.55468685
128 1 10.926807 12.918923 11.040485 -0.00088817 0.00640849 0.00563397 -0.00000888 0.00042986 -0.00009356
129 1 7.527212 21.530048 27.704116 0.06401932 -0.01736302 0.00997949 0.00065335 0.00045881 0.00013820
130 1 24.555093 7.100679 26.739047 0.02835951 -0.04533775 0.00208801 -0.00002616 0.00009765 0.00015152
131 1 3.201474 19.054611 21.344287 0.02020976 0.00101272 -0.01969462 -0.00000407 0.00021517 -0.00006516
132 1 14.870750 4.941839 7.255847 0.00387256 0.00138273 0.05489153 297263.72524963 -356739.37381022 318016.68912674
133 1 13.090121 28.265546 3.660369 -0.04321668 0.03024584 -0.00938381 -0.00011296 -0.00024742 0.00018203
134 1 12.896747 3.378825 27.242701 0.04745318 -0.04940561 0.07013040 -594874.72844705 174743.03033383 -1177562.50960580
135 1 1.037320 3.616771 9.645936 0.02513515 0.01897078 -0.01773894 0.00018946 -0.00009275 0.00009500
136 1 5.673602 17.427911 17.955417 -0.01009793 -0.05282154 0.08035141 0.00010776 -0.00012953 -0.00004022
137 1 22.894732 4.069195 14.108144 0.05433248 -0.01423868 0.03350656 -0.00004148 0.00024179 0.00003377
138 1 12.866477 12.789048 18.276057 -0.01562274 0.04609331 0.01059837 -0.00043569 0.00041182 0.00005097
139 1 28.636321 28.670234 4.195963 0.01348488 -0.03116048 0.02353403 -0.00694240 -0.26727590 -0.03558356
140 1 11.086949 26.814173 23.827118 -0.05243271 -0.01017287 0.03965837 0.00022314 -0.00010390 -0.00002454
141 1 9.761962 7.983836 13.180942 -0.01486306 0.01417095 -0.02586468 675.00748351 367.87170697 -157.80265727
142 1 7.604928 27.516294 9.419387 -0.00748108 -0.00841593 0.04513622 0.00082384 0.00210116 0.00032536
143 1 0.314688 1.485083 29.579896 -0.03580539 0.00413345 -0.00482076 0.00023967 -0.00013716 0.00000874
144 1 7.177178 24.506927 5.218211 0.01392468 -0.02676112 0.04307152 0.00046824 0.00019955 -0.00156067
145 1 15.477816 27.920436 12.265323 -0.02866562 0.06580982 -0.02593389 -0.00009550 0.00004060 0.00003607
146 1 12.357775 4.857557 27.126241 0.05200413 0.05537104 0.06151603 29.82141016 -81.82300530 6.44387844
147 1 2.664765 24.826347 22.521064 -0.04110313 -0.01695054 -0.01399628 59.00021324 -77.01275131 5.71142337
148 1 30.471637 4.332063 20.988138 -0.03515119 -0.02862990 -0.03112692 -0.00002288 -0.00079062 -0.00095283
149 1 14.049019 10.172664 22.159246 -0.00267982 0.00968400 -0.05770934 -0.00014007 0.00001819 0.00103077
150 1 4.662453 15.889456 28.434703 0.01115034 -0.05799876 -0.00912533 0.00202196 0.00978053 -0.01086390
151 1 12.770666 16.883520 28.833607 0.01000416 0.02253004 -0.00226889 0.00012748 0.00010788 0.00000927
152 1 2.772621 12.968378 8.811333 0.03364958 -0.01650278 0.02787748 -0.00027503 -0.00023137 0.00016925
153 1 7.492225 24.020622 30.832989 0.02914165 0.02975333 0.04442643 0.00023873 0.00019279 0.00023794
154 1 11.240214 10.651744 8.858711 -0.01371026 -0.00234767 -0.02805631 0.00006553 0.00032339 -0.00072298
155 1 16.305321 19.661183 11.937829 0.01647334 -0.03595176 0.03727838 -0.00009366 0.00002657 -0.00005322
156 1 18.492894 27.100401 1.115506 -0.02054634 -0.00565937 0.02585997 -0.00050435 -0.00165036 0.00267914
157 1 7.819374 5.817990 7.964360 -0.03311161 -0.02806807 0.03442160 -0.00018044 0.00020610 -0.00009845
158 1 4.820309 10.198677 25.371469 -0.01626050 -0.02714200 0.04411721 0.00006351 0.00011058 0.00006281
159 1 25.186381 7.188919 25.018680 -0.03938439 0.02179982 0.01955379 -0.00024690 -0.00001443 0.00024637
160 1 4.962817 7.001941 29.893339 0.06160947 0.06779158 0.00131434 0.00063954 -0.00033966 -0.00086355
161 1 17.083494 6.643546 6.910582 -0.00444360 -0.02227188 -0.08521526 -0.25707521 -0.16314805 -0.72870193
162 1 21.557493 24.884146 30.494723 0.03218386 -0.00985163 -0.03003995 0.00045563 -0.00113825 0.00032970
163 1 0.151482 9.156185 5.051077 -0.00376040 -0.03886379 0.02930109 -0.00121956 0.00013922 0.00138251
164 1 25.616018 13.991857 4.813184 -0.02043636 0.00714616 -0.00940878 0.00005480 0.00009906 -0.00003298
165 1 14.237365 27.072866 4.265397 -0.03201962 -0.01226930 0.00545396 0.00004166 0.00000207 0.00000657
166 1 9.405306 2.304286 2.767880 -0.00333003 0.05018015 0.01347407 16.85754624 -53.26430375 5.36379214
167 1 24.831254 28.027232 26.867254 0.00732055 0.00922563 0.00865670 -0.00001409 0.00002165 -0.00020138
168 1 15.130589 17.213422 29.996042 -0.01234686 -0.02322834 -0.00408637 0.00003542 0.00011332 0.00007331
169 1 16.463081 25.746011 18.408011 -0.00375622 -0.01092849 0.00934979 -0.00018561 0.00021589 -0.00001583
170 1 20.189590 28.424923 5.761934 0.03034345 -0.00292743 0.00251117 0.00121757 -0.00154070 0.00375439
171 1 22.000856 26.388263 30.543269 -0.03994356 -0.02888172 0.01300251 0.00196678 -0.00243578 0.00078597
172 1 15.847618 8.873247 8.938482 -0.01082219 0.02256600 -0.03680589 -583.49553732 -855.19135597 622.30268704
173 1 16.278103 28.625924 16.575985 0.04544386 -0.03623614 -0.03416071 -0.00013253 0.00015271 0.00014761
174 1 27.986470 20.496821 25.593876 0.00543318 -0.01273589 -0.04915106 -0.00046869 -0.00081549 0.00029139
175 1 11.140931 15.633547 2.436356 0.04122050 0.01667011 -0.05311322 0.00013455 -0.00001889 0.00010191
176 1 13.512196 19.779635 16.924313 0.01960082 -0.00378666 -0.04463686 0.00006258 0.00014491 0.00009594
177 1 16.610744 27.374401 28.293040 0.03105315 -0.01726475 0.01492859 -1405.32419381 584.66364994 -307.10649886
178 1 9.707649 30.312122 2.750856 -0.01889625 -0.03346986 -0.04978545 -0.00572342 0.06355082 0.00379225
179 1 30.163328 30.825332 30.797429 -0.04338088 -0.01452286 0.00399197 0.00032032 -0.00018391 -0.00012604
180 1 18.845425 8.590395 0.829331 0.06353000 -0.01007409 -0.01409007 -19.81630811 -24.40046476 -112.00710740
181 1 18.428592 18.470377 6.523479 0.05152496 0.01685292 0.00492647 0.00004005 -0.00000633 -0.00006960
182 1 15.244794 2.101948 19.853452 -0.00765614 0.01296803 0.03341926 249.37037908 -536.18528111 -475.58372237
183 1 27.136937 29.647827 23.756524 0.01375889 -0.02160984 -0.01589782 0.00045498 -0.00008058 0.00004782
184 1 29.695376 5.918917 6.240791 0.00087695 -0.02512174 -0.00767424 -7.71715633 -44.63751815 2.10103381
185 1 16.139729 6.174875 20.731913 -0.04311711 -0.01882060 0.02445055 0.00039030 0.00095519 0.00000189
186 1 7.395051 30.043352 25.396497 0.03106344 -0.04269246 -0.01507147 -8810.87267991 -7105.02848123 19760.43498056
187 1 8.190214 22.687972 15.124748 -0.02051151 -0.01240089 -0.00565153 -0.00003439 0.00010874 0.00004506
188 1 26.669712 7.083778 8.378223 -0.05472190 -0.01874761 0.01625137 309.62117970 178.84704784 -58.43401761
189 1 19.983709 8.437509 26.329190 -0.04864220 -0.03736866 0.01895542 0.00008760 0.00009161 -0.00004073
190 1 1.431401 19.256517 16.756033 0.00548848 0.00642199 0.00499876 -2.88654160 4.03290813 -3.77193831
191 1 25.900808 23.579560 18.013548 0.04342667 0.00385632 0.02278508 -2.41776708 -1.05248145 2.26189972
192 1 15.262967 1.580779 23.736363 0.02813551 -0.02333978 -0.05055507 -0.00020680 -0.00220883 0.00003632
193 1 23.200330 3.761091 20.211859 -0.01971351 0.02794629 -0.00209056 -1749.32522184 54890.82545483 -68.58241686
194 1 1.514798 13.064410 12.949015 0.00507116 0.01499913 -0.02682555 0.00019847 0.00011677 -0.00000169
195 1 23.507415 4.150700 11.119324 -0.04330030 0.01267575 0.00630450 -0.00038621 -0.00005341 0.00017442
196 1 14.862913 14.752805 22.060784 -0.02946663 0.02495695 -0.03955659 -0.00022266 0.00009585 0.00017497
197 1 30.770669 16.243406 18.271240 0.04141862 0.01736338 0.01202800 -0.00007501 -0.00015679 0.00032359
198 1 7.014030 20.148499 17.710040 0.02110794 -0.02070711 -0.00809712 -0.00006280 -0.00002183 -0.00009288
199 1 17.786185 28.151146 5.800578 0.01798241 -0.04416405 -0.01000928 0.00897003 0.00173257 -0.00583296
200 1 17.441415 14.589021 20.676161 -0.00884833 -0.01725917 -0.03719430 -0.00088403 0.00095158 0.00205916
201 1 2.650193 28.083430 24.826389 0.03703108 0.06756167 -0.02132968 -0.00027974 0.00151294 0.00049305
202 1 28.111111 10.516049 20.037708 -0.01706101 0.02187514 0.03655818 -0.24380813 0.01254669 -0.55222899
203 1 7.898151 9.405731 10.887673 -0.01518239 0.00350130 -0.03201274 -0.00188034 0.00029258 -0.00117124
204 1 12.209497 10.377407 24.525408 -0.05081528 -0.01630332 0.00214887 0.00000350 0.00003579 -0.00003680
205 1 7.402120 5.536058 25.630424 -0.00292835 -0.01225599 0.01535819 -0.00000386 0.00013270 0.00007235
206 1 29.283623 4.781516 19.212232 -0.01695052 -0.00644430 0.00920031 0.00029659 -0.00034849 -0.00016812
207 1 6.164805 6.751660 3.911758 0.01001518 -0.01648965 0.05311083 0.00027088 -0.00013979 0.00020656
208 1 5.049361 14.717490 10.679736 -0.01154179 -0.02561012 0.01197107 0.00217497 0.00239511 -0.00164394
209 1 18.395577 15.560384 11.860252 0.01805297 -0.03521377 0.06758410 -0.00008792 0.00003924 -0.00010275
210 1 25.990435 19.927644 5.785211 -0.00042012 0.05262069 0.02463567 0.00007800 0.00016449 0.00012304
211 1 17.436827 26.061095 11.294226 0.02666952 -0.00625833 0.01816572 -0.00071241 -0.00010165 0.00031484
212 1 12.187850 7.801355 28.879902 -0.02453345 0.04029051 0.03903814 3711.78940070 9137.47763385 -792.48880767
213 1 18.702703 7.359534 19.278046 -0.01187806 0.01141585 -0.06168838 -0.00004543 0.00009785 -0.00003191
214 1 20.991289 4.862547 30.378255 -0.02486882 -0.04608859 -0.02764378 0.00047742 -0.00040629 -0.00028338
215 1 20.018154 3.118468 2.114697 0.01001179 -0.03510592 0.00208799 114.83615895 -144.47188254 -23.49512356
216 1 14.112109 16.777440 3.852299 -0.05442177 0.05834088 -0.05634434 -0.00002961 -0.00010404 0.00009480
217 1 1.108723 26.503224 3.429344 -0.03968984 -0.01990211 0.02858159 -30748.98430788 73137.28045232 -50989.34552951
218 1 5.207270 22.295167 12.244571 -0.02821875 0.01145902 0.01455223 -0.00082436 -0.00087775 0.00152350
219 1 13.103357 19.136970 15.508102 -0.00098844 0.01176055 0.03876382 -0.00014698 0.00005583 -0.00003275
220 1 13.915985 6.129836 5.622401 0.02497903 0.01519900 0.02047925 0.44025710 -0.44602311 0.59029110
221 1 6.318734 5.641348 8.320424 -0.00600113 0.01516313 -0.01396313 -0.00002776 0.00006593 0.00018735
222 1 15.155718 11.002377 16.951449 -0.01096958 -0.04134221 -0.00550354 -204.43896973 -308.87356012 338.09737122
223 1 16.370213 4.819989 16.381004 -0.00800169 -0.01585405 0.05877287 -311.51967317 -2462.58956799 -1710.48638246
224 1 20.391921 3.945337 26.200210 -0.01179781 -0.00165070 -0.00342182 0.00075209 0.00005062 0.00007543
225 1 13.597410 24.341971 14.499132 -0.01016201 0.04382511 -0.01369098 6799.81743967 -11675.48809615 -17313.72349723
226 1 24.875754 30.484114 14.938807 0.05157101 -0.02606903 -0.02552257 234849.96336514 994419.75065986 -324138.88116746
227 1 6.767142 12.807775 29.995745 -0.02605218 0.02596683 -0.00275497 -141.47962388 -166.91752627 27.62213383
228 1 15.605886 11.741798 21.011545 -0.00654617 0.00873984 -0.03029960 6.65975586 1.39706966 -4.58341868
229 1 15.195347 20.200454 25.320238 -0.01295394 -0.02494092 0.01354354 0.00003201 0.00006210 0.00002710
230 1 24.858067 7.875923 5.008754 -0.00752956 0.02716730 -0.03019546 -0.00109245 0.00087594 -0.00138399
231 1 16.533991 27.495409 11.216949 -0.00621658 0.00775798 -0.04143528 -0.00013602 0.00011303 0.00014594
232 1 17.322994 18.412709 5.843467 -0.03060702 -0.01560748 -0.03987307 0.00001688 -0.00024588 0.00011104
233 1 4.013177 29.842534 19.723759 -0.04200917 0.00437124 -0.01389629 409.09893245 -164.66956017 454.20239165
234 1 30.901790 22.880732 22.613607 -0.03631344 -0.00768109 -0.03372332 15.63781343 -29.64967901 -30.85556214
235 1 13.366090 1.531914 1.262782 0.01231286 0.02279560 0.00004695 0.05369164 0.23492458 -0.12751324
236 1 29.081323 6.514970 23.326645 -0.04147329 0.01064893 -0.02006965 38.57972132 17.02702758 26.18844771
237 1 30.557630 30.212151 21.033603 0.00789363 -0.04115302 0.00587305 58.84418116 92.98285006 -130.47963765
238 1 18.043266 30.031186 9.486511 0.04319537 -0.02754065 0.02126459 -0.00081971 0.00121665 0.00149947
239 1 17.821951 23.984049 19.175616 -0.00322424 -0.01777060 0.02394398 0.00005649 -0.00008575 0.00022286
240 1 10.349024 4.550342 26.106002 0.03380387 -0.02090053 0.01631076 0.00282540 -0.00171054 0.00087402
241 1 20.936784 20.859581 29.953016 0.00053812 0.00278578 -0.02194155 0.00013586 -0.00010830 0.00008921
242 1 22.904473 2.249741 8.349172 -0.01065744 -0.00148882 -0.02497392 -0.00017340 -0.00011805 0.00014546
243 1 17.388110 16.395399 6.207595 -0.04590414 0.00207183 0.01149792 -0.00005893 -0.00002160 -0.00000116
244 1 10.322058 29.495047 22.095239 0.00512072 -0.00731179 -0.02058983 3358.93622916 257.60873252 12671.31951621
245 1 12.436127 12.300617 21.629975 0.04481875 -0.00015866 -0.03602335 -0.00205469 0.00056700 0.00065852
246 1 14.902197 6.700822 4.553783 0.00065403 -0.03186204 0.00438334 71.09129499 -22.98389793 12.36564462
247 1 16.656587 22.760981 29.858354 0.02746867 -0.04789105 0.02263032 -0.00017557 -0.00060179 0.00010013
248 1 4.230840 21.980315 3.799856 0.01116600 0.01208913 -0.01589496 0.00037891 -0.00014653 0.00060233
249 1 18.580331 7.877181 17.895597 -0.01074405 -0.04069584 -0.02473906 0.00161428 0.00064221 0.00033450
250 1 0.311695 20.378313 19.314920 -0.01941111 0.00692751 0.00343116 -0.00004948 -0.00104161 0.00120575
251 1 9.501074 28.304464 23.172749 0.05034857 -0.01016167 0.05259954 6.87803615 9.96602239 -9.02423116
252 1 25.845197 14.610534 2.859086 0.00132140 -0.00909620 -0.01749357 -1.48632661 -0.07676034 -0.02318540
253 1 30.858836 9.870442 23.149417 0.04746157 0.01055535 0.00591014 -0.00082233 -0.00383054 0.00133934
254 1 10.856574 9.008215 27.840773 -0.04110391 0.01090113 0.02852768 1.48100399 -1.34247683 1.15581423
255 1 19.766843 16.713232 25.756438 0.01671965 0.02052942 -0.04085776 181543.49303986 -370744.27414050 -51361.67842638
256 1 19.245715 12.236559 14.398753 0.02460291 -0.04963464 -0.01132008 0.00037295 -0.00058453 -0.00199048
257 1 17.595925 14.795060 5.240444 0.01869912 0.04829088 0.01364870 0.00004832 0.00004972 -0.00006848
258 1 17.788886 11.643218 18.328917 -0.01712740 -0.04893497 -0.00645081 0.63349955 1.05067595 -0.51305604
259 1 14.058765 28.692197 7.057632 -0.02403134 0.00952226 -0.01163188 -0.00149680 0.00033804 0.00052565
260 1 13.358672 5.791219 4.107835 0.00408554 0.00871252 -0.02818543 -0.00113507 0.00127915 -0.00136069
261 1 11.635882 18.800875 21.214003 -0.02376024 0.00155440 -0.03459216 9.25909988 -12.14688421 2.13136025
262 1 8.954192 20.577156 3.046747 0.06034041 0.04198689 -0.02479291 0.00015472 -0.00002397 -0.00007529
263 1 9.384076 6.175279 21.119020 -0.05068585 -0.02639086 0.00112711 -0.00002065 0.00030314 -0.00008705
264 1 30.678127 11.401242 19.527431 -0.04127709 0.06459758 0.02306536 0.00158517 0.00040123 0.00051907
265 1 8.006805 17.779997 27.308839 -0.00490362 0.02997004 -0.02663351 -0.00065359 0.00005867 -0.00020354
266 1 0.710369 3.166720 7.357642 -0.00745195 0.00182779 -0.02974195 0.00147737 -0.00208384 0.00113626
267 1 2.519115 2.207238 24.396726 0.03353630 -0.03724761 -0.05743199 -0.00020723 0.00026470 0.00057385
268 1 12.735165 18.931062 5.562586 0.01290589 -0.00745131 -0.03587195 -0.00012400 -0.00000695 -0.00005209
269 1 0.291366 11.043372 22.806435 0.01176068 0.00802119 0.00809191 0.00027109 0.00102806 -0.00032828
270 1 0.427384 9.867416 3.693419 0.05599647 0.01793010 0.01814246 0.00797697 -0.00308422 -0.00655295
271 1 4.258085 26.555294 23.908028 0.02439083 0.00996308 -0.03585497 378411374.73779374 379673955.39658791 -48378475.77012289
272 1 17.522789 28.666212 0.802056 0.01443580 -0.00006642 0.01791746 -0.00325558 0.00143735 0.00046597
273 1 15.113383 0.170057 26.686273 0.01461965 0.04531521 -0.02170835 0.00032551 -0.00135077 -0.00102179
274 1 9.795018 2.797371 18.174361 0.01082934 0.02206297 0.01651400 -182.81693818 430.47558692 -270.57706716
275 1 17.226800 7.269984 6.299774 -0.04222816 -0.04607799 0.02456142 -1.57297049 -2.00669178 -2.83303552
276 1 11.065434 8.031635 13.054066 -0.00457147 -0.03658379 -0.01235855 -4743662.44480865 17553860.34706277 -4296766.21590642
277 1 5.874875 20.713143 5.053044 0.04374213 0.01721695 -0.00781452 0.00001978 -0.00001785 -0.00007193
278 1 23.204816 24.451285 8.561361 -0.00387263 0.01345678 0.01951242 -2003.77231282 3599.08016799 1349.66111369
279 1 22.681099 25.419887 8.946977 -0.04501311 -0.00532514 -0.01190193 2017.50688368 -3731.38324354 -1485.58029199
280 1 10.743935 4.086480 20.001946 -0.01860116 -0.01984068 -0.01258375 -0.10010853 -0.13501265 -0.19290072
281 1 19.655773 20.156876 30.657988 0.02349757 -0.00674694 -0.04245607 -66.16135905 -25.69716416 13.89973678
282 1 14.068460 19.720357 23.763495 0.02036582 -0.03357020 -0.02098565 6.91157358 9.17642267 4.55585199