ITEM: TIMESTEP
0
ITEM: NUMBER OF ATOMS
2330
ITEM: BOX BOUNDS pp pp pp
0.0 32.304031
0.0 32.304031
0.0 32.304031
ITEM: ATOMS id type x y z vx vy vz fx fy fz
1 1 0.225353 10.890160 3.828085 -0.00475934 0.04882347 0.01101261 -13857.90364513 -1443.23229828 3340.45758090
2 1 18.592002 10.700347 30.689163 0.03596056 0.01809701 0.00026146 -0.00014337 0.00000839 0.00023825
3 1 8.522322 6.866674 17.161129 0.00722870 -0.05651125 -0.02875729 0.00004467 0.00003873 0.00005218
4 1 20.871764 27.170408 10.064271 0.03266955 0.06471307 -0.05549168 -0.00001794 0.00003413 -0.00007350
5 1 18.188998 22.409508 8.677579 -0.04416880 -0.04808641 -0.01370523 0.00000095 0.00001540 -0.00012688
6 1 0.493279 14.623804 4.560527 -0.01628063 0.02185482 -0.02460289 0.00001207 0.00216556 0.00051087
7 1 14.083932 18.336603 3.345494 -0.02078429 -0.03710106 0.01659943 0.00006372 0.00009764 -0.00008964
8 1 22.303832 1.143515 15.307262 -0.02995943 -0.01432754 0.02712216 0.00007052 0.00008698 0.00001699
9 1 25.179973 17.565998 20.777864 -0.00695803 -0.01468338 -0.04826537 -0.18847093 0.94949906 0.20723258
10 1 27.037562 8.527796 21.519851 -0.05364834 0.03417517 0.03077776 -0.00015338 0.00014141 -0.00008820
11 1 22.534602 29.423824 12.789630 0.00160140 -0.00475699 0.03893513 -8.80919910 25.42064458 -1.91611135
12 1 5.764166 22.253689 4.606097 0.01750477 0.00093610 0.02132518 -0.00004920 0.00001069 0.00003949
13 1 21.591838 16.092880 14.353699 -0.01900307 0.04314035 -0.00657154 -0.00006369 -0.00008740 -0.00006557
14 1 10.763741 3.766593 23.519199 -0.00351394 0.01386259 0.02499104 0.00003225 -0.00010667 0.00007521
15 1 24.639700 30.211412 25.535326 -0.03560346 -0.06180057 -0.00639661 -68.72580304 972.05764335 -672.87763775
16 1 1.619222 22.381145 23.748723 -0.02956629 0.03759591 -0.05100806 0.00000462 -0.00001410 -0.00015117
17 1 30.937616 28.479404 25.665074 0.01460869 -0.01838024 0.01858175 0.00008725 0.00014162 -0.00009864
18 1 21.098852 24.935844 6.540421 -0.01618085 -0.01564834 0.00749445 -0.00004716 -0.00009023 -0.00019354
19 1 24.770176 25.687677 19.078864 0.02903914 0.00719640 -0.01354006 0.00013507 0.00013079 -0.00002501
20 1 2.953996 29.305549 17.226047 0.05556926 -0.00676611 0.03963150 0.00008786 -0.00017120 0.00015644
21 1 26.605343 25.517194 8.388425 -0.03320821 -0.00201484 -0.04675378 0.00008288 -0.00008952 0.00005291
22 1 7.682088 23.819183 30.493792 0.00604053 0.03971341 0.00932799 -0.00003698 -0.00016418 -0.00015988
23 1 12.989677 22.182284 21.247672 0.01899573 -0.03811684 -0.05286276 0.00005403 0.00003485 -0.00010197
24 1 30.307072 18.630887 11.221308 0.02244357 0.02305577 -0.03071744 -147433.89361252 6916.41024811 1156595.42537943
25 1 22.060583 28.564314 29.598006 -0.05293096 0.00330268 -0.00354584 -0.00021810 -0.00016541 0.00021705
26 1 9.618132 3.131804 2.755846 0.02743636 0.00961041 0.01451442 0.00009800 0.00019655 0.00015219
27 1 6.215231 23.880629 9.675902 0.01198085 -0.00568247 0.00874646 1242.98170832 -712.11885113 1172.34749837
28 1 5.240648 23.873801 7.298637 0.01166483 -0.00439922 0.00688970 0.04179843 0.00017288 0.10212824
29 1 7.534999 24.836625 12.299073 0.01502242 -0.01625101 0.02313320 -920175.68491606 -472065.29929960 215912.68084666
30 1 6.553532 28.867771 23.319537 0.01220169 -0.02245900 -0.01598206 128.53012945 29.88307742 47.89515613
31 1 6.701079 0.825995 12.903063 -0.00167116 0.01736744 0.05172991 -0.00000405 0.00003158 0.00009989
32 1 4.669922 15.869117 16.280874 0.01489702 0.01319249 -0.00448507 0.00006816 0.00013378 0.00002592
33 1 27.634114 13.974539 16.349284 0.02469887 0.00155571 0.03587010 0.00013632 -0.00017804 0.00007529
34 1 13.031617 9.724261 10.687621 -0.01730855 0.00468872 0.00839501 0.00004063 0.00006990 -0.00007166
35 1 26.291347 25.206796 0.072414 -0.01545175 0.01716076 0.00256005 1.12617936 -0.06002831 -0.01381777
36 1 0.989875 10.089347 9.186894 -0.02159869 0.00418835 -0.01686934 -4.68758707 -8.67180710 0.06026896
37 1 31.172707 5.280894 28.742157 -0.02335328 -0.05417732 -0.02710506 0.00015243 -0.00021474 -0.00004116
38 1 25.750776 21.488738 19.414118 -0.00810827 0.02423310 0.00977617 0.00013749 0.00144397 -0.00047865
39 1 12.151021 3.871538 18.109056 0.04197841 -0.01519681 -0.03533339 -0.00011686 0.00020437 0.00010443
40 1 19.281756 31.654033 6.270529 -0.01930154 0.04721871 -0.00495810 -0.00012151 0.00005879 -0.00007301
41 1 20.465979 11.820874 3.036142 0.02508769 -0.02876592 0.05537116 -0.00005491 0.00008741 0.00007677
42 1 4.924039 19.581992 13.062153 0.01436361 0.00820768 0.01829356 -0.00003445 -0.00014859 0.00007290
43 1 5.465094 2.063101 21.370227 0.00571420 0.01412669 -0.01940139 441.71831144 -434.41980762 812.05094518
44 1 22.428709 25.633994 13.908157 0.02061400 0.01667982 -0.01078370 -0.00017659 -0.00156450 0.00040390
45 1 11.256771 23.050114 18.614316 0.07568746 -0.02317286 -0.02196349 -0.00007819 0.00021851 0.00007176
46 1 17.156407 22.915432 18.781171 0.00665261 0.00984182 -0.00223924 -0.00005925 -0.00022096 -0.00011773
47 1 11.013398 31.513464 4.517650 0.01287350 0.02039784 0.00395660 0.00002139 0.00016250 0.00005748
48 1 7.923115 19.811388 19.194140 -0.02723087 0.01846555 -0.01930990 0.00015527 -0.00000601 0.00008223
49 1 26.645468 23.342417 21.723797 0.01664667 0.02202249 -0.02430482 -0.00013518 0.00028992 0.00005698
50 1 17.278049 29.688828 15.608810 0.00783723 -0.00110290 0.02718134 0.00001472 0.00004024 0.00020709
51 1 24.627815 9.372296 26.804900 -0.00288793 0.01668311 -0.01667935 1631.32984047 1862.47822885 509.98868414
52 1 25.436548 2.170606 25.826353 -0.03184494 -0.00262153 0.05110843 0.00032965 0.00086237 0.00005178
53 1 17.430342 27.544282 17.627718 0.02127224 0.01534372 -0.01801341 -0.00021352 0.00003923 0.00002463
54 1 24.503362 4.837409 27.000026 -0.00167136 -0.03676264 0.03893331 -0.00006149 -0.00060490 0.00004660
55 1 15.397221 4.858401 17.229210 0.00023827 0.01617413 0.03134695 -0.00009478 -0.00004737 -0.00012694
56 1 10.629656 18.295497 26.808778 -0.01141647 -0.00604760 0.00806620 -0.00002257 -0.00023071 0.00011421
57 1 4.746608 11.166978 13.111627 -0.03816945 0.02062707 -0.02317456 0.00006476 -0.00010368 0.00013169
58 1 30.281771 7.617056 23.776287 -0.03343928 -0.03344849 0.00673592 0.00013546 -0.00017030 0.00014551
59 1 23.660505 6.846473 22.798631 -0.03508298 0.01183823 0.03282246 -440.60657291 -497.96448306 -556.39252887
60 1 26.171059 24.995396 19.634787 0.01651550 0.02714967 0.00858194 0.00003818 -0.00008490 0.00005884
61 1 31.676193 22.713769 26.436916 0.04559942 0.00856475 -0.01017541 0.00006570 -0.00000178 0.00015547
62 1 24.807617 15.988197 28.867309 0.03582295 -0.01903847 -0.02248620 -0.00003639 0.00006018 0.00009764
63 1 3.870944 0.788868 6.956399 0.02239226 0.00738075 0.00467300 27.44513303 71.11071998 -21.15780908
64 1 29.406732 29.846745 5.919564 0.03606171 0.02589121 -0.03100192 -0.00016258 0.00003992 0.00006613
65 1 22.778653 28.324931 6.593705 -0.02309615 -0.04112096 0.03887422 0.00001736 -0.00006610 0.00006194
66 1 10.841288 15.614433 10.662574 -0.01245519 0.02912591 -0.01298976 0.00007319 -0.00007998 0.00003895
67 1 11.019982 14.039475 4.332113 0.00387532 0.01514795 0.03216318 -0.00009913 0.00012654 0.00002352
68 1 11.530831 29.310927 20.176629 0.02596150 0.01336119 -0.01652883 0.00009527 0.00015841 -0.00012861
69 1 7.640155 16.530863 7.068104 -0.01601511 0.00600150 0.02542952 -954.11418247 -1018.22453887 816.85060943
70 1 25.426216 19.649135 3.200940 0.00671336 0.01122787 -0.00990913 0.00001577 -0.00007261 0.00012283
71 1 12.511760 3.572617 15.642155 0.04506523 0.01865765 -0.05114024 -0.00022486 -0.00014907 0.00004551
72 1 20.420562 6.570428 9.043508 0.02979696 0.02441372 -0.00739228 -617868.76236956 1391627.14369622 1678633.50236663
73 1 13.083932 28.229725 10.821411 -0.00771918 -0.03476167 -0.00602914 -0.00006752 -0.00009894 -0.00016667
74 1 16.516539 5.519553 25.004810 0.01725588 -0.00700414 -0.03175487 0.00006682 0.00005195 -0.00006543
75 1 4.867855 8.053088 19.480422 0.01087362 0.02916291 0.01587170 0.00001495 -0.00000591 -0.00003740
76 1 7.407122 21.238837 26.358041 0.04358727 -0.01997334 -0.04370461 0.00005117 -0.00022866 0.00007211
77 1 11.223002 13.390898 2.989555 -0.00431530 -0.03306721 -0.02026892 0.00022191 0.00004943 -0.00015009
78 1 2.808498 32.268462 1.530942 0.02620019 -0.00307257 -0.00298797 -0.00031437 -0.00021168 -0.00021739
79 1 5.385039 15.225951 1.767420 -0.01558052 -0.00248578 0.02251203 -0.00008148 0.00002097 -0.00007705
80 1 11.575699 0.328354 6.519951 0.05479494 0.00846877 0.00628972 406.76413485 -223.57413533 442.18517952
81 1 26.480814 6.417886 26.203331 0.01102595 0.04736564 -0.01384180 0.00183875 -0.00222730 0.00045581
82 1 14.108723 25.616620 10.475640 -0.00287300 -0.04425406 -0.01740591 0.00014899 0.00012968 0.00005373
83 1 12.695542 4.934255 5.881172 -0.02561179 -0.00687131 -0.02989284 0.00025179 0.00056215 -0.00007029
84 1 24.102367 9.952878 32.257235 -0.02104556 0.00051791 0.01501785 -10.79625353 -6.28173836 -56.53483413
85 1 30.932174 23.921322 20.851528 0.04254101 -0.02354930 -0.01989525 -157332.48221550 -46633.96911285 -247161.70163344
86 1 4.432030 31.618540 14.072424 0.00675604 0.01933160 0.00511626 0.00015561 0.00015024 -0.00010228
87 1 22.094066 9.295688 24.118652 0.02700161 0.03657918 0.04117275 -0.00218693 0.00067123 -0.00123110
88 1 28.357673 5.959451 12.860323 0.03629736 -0.00333387 0.04936611 -0.00009372 -0.00002624 0.00000258
89 1 32.069135 8.173097 29.125033 -0.03359242 0.03780366 -0.04234504 -0.00001864 0.00010460 -0.00018696
90 1 6.800390 23.750298 3.294051 0.01991919 -0.03415676 0.01899223 342.22866594 671.11964736 -731.52196382
91 1 9.961442 19.226726 3.717454 -0.08334487 0.04472842 -0.00617690 0.00031299 0.00010483 -0.00044560
92 1 14.909587 29.275294 20.357283 -0.01069511 0.00812725 -0.01511012 6.64316502 -99.50766671 -1.93875219
93 1 21.433917 31.283106 1.731934 -0.06598881 0.00289820 -0.00241877 0.00002106 -0.00014573 -0.00014864
94 1 11.347146 4.180247 2.037804 -0.03924994 0.00951690 -0.00332085 0.00008260 0.00007435 -0.00006471
95 1 20.567693 9.869881 15.120597 0.04156772 0.00579972 0.00468030 -0.00011862 -0.00006144 -0.00014029
96 1 14.235444 2.430932 25.395271 0.01078930 -0.05740650 0.04469845 103.46574162 -351.01801575 -57.78108716
97 1 23.621248 26.905957 30.633700 0.02389111 -0.01526968 -0.00751285 -0.00203120 0.00100267 -0.00118826
98 1 16.261351 4.918241 19.000247 -0.00975815 -0.05628859 -0.04747229 -0.00004226 -0.00000063 0.00003393
99 1 24.006022 22.383961 30.210956 -0.01693641 0.02613099 -0.05498308 -0.00073294 -0.00088181 -0.00048544
100 1 21.804454 1.753154 11.912150 0.03180096 -0.01111032 0.00942479 -0.00010157 0.00044027 -0.00010561
101 1 2.291465 12.237826 1.403378 -0.00209002 -0.04807107 0.00133069 0.00134617 0.00103703 -0.00164678
102 1 9.421712 5.352893 18.267713 0.00862979 -0.03506833 -0.02178288 0.00009586 0.00025007 -0.00005941
103 1 13.244833 10.698374 19.359272 -0.01538745 0.00500323 0.04118385 -0.00006931 0.00014907 0.00010630
104 1 16.551458 9.572298 16.284297 -0.01877986 0.00421034 -0.05765263 -0.00003086 -0.00007323 0.00013034
105 1 7.173751 13.785107 11.260574 0.00526051 -0.02197395 -0.02334688 0.00005372 -0.00031157 0.00037358
106 1 2.751620 30.809799 17.964252 -0.02256516 -0.02601283 0.02338010 -0.00005171 -0.00010051 -0.00031071
107 1 0.527154 14.809867 1.552714 -0.04410504 0.02910307 -0.01655424 -0.00016885 0.00065067 -0.00040813
108 1 22.808783 12.587327 16.831016 0.01155473 0.01435271 0.04290917 0.00000218 -0.00005063 0.00002596
109 1 25.409675 31.607270 25.433226 0.00409551 0.04029854 0.01040623 -35.92290140 -65.12290576 4.76341101
110 1 3.531078 26.857009 19.720564 -0.02460693 0.00537966 0.00740823 -0.00005897 -0.00012052 -0.00020657
111 1 1.364279 26.325361 30.565537 -0.00478812 0.02866642 -0.00793444 -42.01236482 64.86571798 -121.12870050
112 1 23.253561 28.200032 14.519675 -0.03813272 0.03308420 -0.01422982 -0.26470806 0.45070949 -0.63709389
113 1 15.985160 7.880837 21.490505 -0.00916419 0.02802359 -0.02917250 0.00002971 0.00011465 0.00000705
114 1 13.163286 29.296867 11.535788 0.02532462 -0.00106945 -0.03749493 299.85101248 992.87830522 261.35618430
115 1 11.783430 18.987976 27.544265 -0.03318471 -0.00005885 0.01257856 -0.00003025 -0.00006908 0.00004707
116 1 24.967974 12.946251 4.063626 -0.00139771 -0.01288775 0.00423722 -0.00003007 0.00024977 0.00027862
117 1 30.936892 4.204474 30.941773 0.00719892 -0.01284373 -0.00288786 0.00018133 -0.00004201 -0.00009172
118 1 26.634528 27.635318 1.932271 -0.00567192 0.07348699 0.01224527 -0.00009773 -0.00136975 -0.00114603
119 1 21.318557 24.212606 20.610345 -0.03868367 -0.04573813 -0.02899773 0.00000185 -0.00003629 0.00010063
120 1 6.284428 16.099007 6.953081 0.00525011 0.01244193 0.03543566 308.02327426 98.11821454 26.13348178
121 1 26.003600 8.136374 25.360122 -0.00086635 -0.01763195 0.00188059 -0.24590251 0.22293027 0.26123647
122 1 25.661354 14.974192 16.613061 0.00069310 -0.01980164 0.03574965 -0.00010076 -0.00028361 -0.00049352
123 1 0.115429 31.557695 26.753484 0.02079301 0.01457203 -0.00496227 -0.00001727 0.00012020 -0.00004396
124 1 14.885060 13.316311 7.988763 0.03500167 -0.03381377 -0.00528189 0.00014535 0.00008797 0.00009322
125 1 1.347427 17.875333 13.496811 -0.04174295 -0.01678899 -0.02022834 0.00108639 -0.00028800 0.00077884
126 1 30.345390 18.211980 18.250662 0.00401630 0.02196587 -0.02495198 0.00016772 -0.00000314 -0.00011608
127 1 20.869278 27.425939 28.811901 0.00067557 0.02877694 -0.03031412 -0.00013757 -0.00013566 0.00004120
128 1 26.891425 14.429442 14.848026 -0.02155188 -0.01897484 -0.01724678 -0.00000606 -0.00019514 -0.00002756
129 1 24.460813 32.122880 13.715175 0.03560437 0.05094519 -0.01360077 0.00143320 0.00205893 0.00074115
130 1 31.744858 24.398397 15.613800 0.00180292 0.01749454 -0.03386427 0.00014475 0.00007484 -0.00033617
131 1 3.204449 27.756505 0.111542 -0.01688415 -0.03136019 0.02337916 -0.00411676 -0.00298140 -0.00403556
132 1 30.204406 14.337639 18.309330 0.03230088 0.01240597 0.02102033 0.00013461 -0.00000248 0.00003575
133 1 18.516727 13.378402 5.859242 0.02823336 0.01988357 0.02761813 -0.00013113 -0.00007667 0.00005585
134 1 12.392689 13.259477 20.121415 -0.04249967 0.01799804 0.00922707 -0.00004982 0.00012984 -0.00007535
135 1 25.411078 17.247299 31.999824 -0.09952715 -0.02644929 -0.00548034 0.00011911 0.00000323 0.00009496
136 1 4.413008 11.480934 8.195979 -0.00279061 -0.03788702 0.03205383 0.00178950 0.00047636 -0.00043877
137 1 25.952996 23.106384 13.875575 0.01683653 0.01133323 0.01696159 -1543.95477372 997.58572350 222.75602433
138 1 14.725008 0.315386 28.655281 0.00318816 -0.02083206 0.04003916 0.00022562 -0.00070182 0.00113063
139 1 22.918253 7.327757 4.840863 0.01021809 -0.05731300 0.01259613 0.00018029 0.00006051 -0.00031580
140 1 26.574421 19.662175 31.799845 0.04175032 0.03046685 -0.00461401 -0.00010733 -0.00008602 -0.00009074
141 1 14.232573 21.397984 28.798541 0.06352770 0.00383432 0.00652637 -0.00017433 0.00003483 -0.00008603
142 1 0.004970 3.134283 5.213561 -0.01392003 0.00421761 0.02144901 -0.00030394 -0.00002113 -0.00017262
143 1 18.971654 31.037345 4.169984 0.00010937 0.04218512 -0.03255526 0.19579268 0.00087599 0.19098191
144 1 1.170134 3.705634 11.488937 0.05202385 -0.03797234 -0.03413511 -0.00016282 0.00001174 0.00011853
145 1 16.309521 28.798632 10.875963 0.00112761 -0.00400931 -0.01238459 0.00154657 -0.00031084 -0.00030804
146 1 21.748985 31.548101 17.107348 -0.01745033 0.00850719 -0.03334479 0.00005847 0.00023352 0.00041152
147 1 32.043873 28.509815 3.123077 -0.00329400 -0.01861895 0.02763314 -0.00008710 -0.00012077 0.00036982
148 1 22.423513 31.726639 10.611899 -0.01040563 0.02563610 -0.03064003 -0.00000285 0.00035747 -0.00030228
149 1 25.205618 23.923622 23.614414 0.00879793 0.00382953 -0.00061930 -0.00013794 -0.00003263 0.00012257
150 1 26.250169 22.875659 23.193194 -0.00128393 -0.02608888 0.01571013 -0.00026514 0.00001749 0.00023089
151 1 21.657622 24.851188 13.449119 0.02122959 -0.04556963 -0.01669833 -0.00072265 -0.00028947 -0.00000539
152 1 12.817326 18.703818 9.647772 -0.04479925 0.03875845 0.01017677 0.00005059 -0.00012837 -0.00001217
153 1 24.513671 19.408194 12.269702 0.00739469 0.00771924 -0.00079599 -0.00042615 -0.00094884 -0.00033212
154 1 22.174945 9.879323 23.393047 0.00393821 0.02713924 -0.02319511 -0.00198860 0.00238595 -0.00033513
155 1 18.184091 4.868656 30.920019 -0.00194289 -0.00996816 -0.01941869 0.00007410 -0.00012376 -0.00014319
156 1 29.768732 25.573287 5.177987 -0.02310834 0.02950347 0.02086715 -581.04885616 -189.17882547 1645.70985904
157 1 18.511114 7.115920 21.779749 -0.00675954 -0.06509176 0.00213963 -0.00022051 0.00004719 0.00008118
158 1 20.039871 16.683702 31.096261 -0.00412460 0.03389720 0.05555636 0.00006464 -0.00002161 0.00012411
159 1 31.693554 31.022505 2.301473 -0.04020286 -0.03154840 0.00928455 -1838.50916749 -254.62260065 -4196.73901593
160 1 30.785809 14.530600 25.515766 0.00539037 -0.01033226 0.03220741 0.00042805 0.00008922 0.00009171
161 1 19.206186 19.558801 20.291914 -0.02453265 0.02300887 0.00696849 -259.59819745 -536.01475204 -228.66195863
162 1 21.422957 22.853791 13.827819 -0.01207830 0.04369232 0.03052055 -0.00082558 -0.00016969 0.00008291
163 1 18.768285 9.210452 16.806810 0.01755501 -0.00664820 0.04590799 0.00001632 0.00000266 -0.00001056
164 1 23.147220 25.806614 3.704942 -0.03342062 -0.06444924 -0.02432471 -0.00027916 -0.00005311 0.00029013
165 1 15.914086 26.005331 26.683057 -0.01576636 0.00639307 0.00790785 229.40748059 -170.39759824 81.74694931
166 1 26.646268 26.247201 13.317018 -0.04544458 0.01153086 -0.02542014 0.00072923 0.00150196 -0.00029177
167 1 22.187371 25.794272 25.445975 0.01031238 -0.00542134 0.02074112 -0.00009981 -0.00054928 -0.00017548
168 1 10.111732 19.240812 21.893050 -0.01402324 0.02316073 -0.02892777 -0.00001248 0.00015301 -0.00023516
169 1 14.399172 20.240801 12.490715 0.03756724 -0.02896705 -0.00595372 -0.00010561 0.00003356 0.00005156
170 1 22.809923 28.012577 0.326527 0.01267177 0.00255237 -0.02974747 -232.60691493 203.27673367 -86.11093912
171 1 14.713243 12.649454 25.712924 0.00347088 0.00288473 0.00718233 -0.00000866 0.00007116 -0.00013784
172 1 12.110787 28.845722 14.379378 -0.01956122 0.00575595 0.04107111 0.00069445 0.00043571 -0.00197971
173 1 30.615515 13.792919 24.803877 -0.03886997 -0.00533946 -0.04238319 0.00007217 -0.00006981 -0.00002474
174 1 10.965852 28.609873 25.828209 0.01315173 -0.02345200 0.00316051 0.00007166 -0.00003594 0.00022031
175 1 22.747399 5.067006 8.759570 -0.01884438 0.01863585 0.02660946 -0.02370935 0.01535065 0.00288224
176 1 28.745536 6.635516 27.465498 0.01023433 -0.05164339 0.00734523 1013400.38030032 1032721.02368433 1424369.12083624
177 1 9.305389 1.763016 26.362767 0.02772598 0.02658687 -0.00593969 -0.00013052 0.00003512 0.00022646
178 1 22.895945 2.312976 13.996990 -0.02762952 -0.05287237 -0.02237686 -0.00002799 0.00019196 0.00016448
179 1 11.702921 21.430733 15.434423 0.01467756 -0.00310556 -0.02898625 -0.00007084 0.00008763 -0.00007300
180 1 16.484953 10.915017 7.103112 0.01869470 -0.01673588 0.00939915 39.62547263 24.78622013 -62.15332012
181 1 2.461402 26.524813 3.170947 0.01523204 -0.02913013 0.01864210 0.00023076 -0.00007196 0.00042587
182 1 11.477302 25.949983 27.091883 0.01262134 0.04555481 0.01522941 -0.00068007 -0.00002729 0.00000366
183 1 19.785335 28.986867 31.974824 -0.03424780 0.02336013 -0.00540762 -0.00146074 0.00043216 -0.00073283
184 1 13.869408 2.712650 17.431139 -0.00393263 0.00798962 0.07579273 0.00017240 -0.00000058 -0.00011433
185 1 9.063632 26.368512 19.576847 0.00111062 -0.00522462 0.04623270 -0.00005292 -0.00021063 -0.00034918
186 1 19.214752 13.107747 14.002216 0.02553771 0.02980879 0.00037795 0.00006825 -0.00003249 -0.00008841
187 1 28.802815 29.099909 9.018021 -0.04968967 -0.04130312 0.02127997 -0.00001191 0.00016196 -0.00002686
188 1 21.871339 17.458578 6.445207 0.01647273 -0.01193543 -0.03821192 -0.00004415 0.00000654 0.00006229
189 1 0.002261 32.121888 27.236209 -0.01515579 -0.01117544 -0.02097921 0.00001742 0.00024369 0.00001697
190 1 10.714418 11.692272 25.087016 0.00035397 -0.02963405 0.00889854 0.00006861 0.00019994 0.00002831
191 1 21.737213 22.594106 3.964373 -0.01306689 -0.02746492 -0.01916108 -0.00022198 -0.00013367 0.00001145
192 1 19.169220 6.054576 3.996670 -0.01200466 0.02883823 0.00444429 0.00004480 -0.00027859 -0.00030470
193 1 13.431526 5.503457 2.480627 -0.00486308 -0.00573005 -0.06885048 -0.00000039 -0.00004883 0.00002632
194 1 6.706804 8.301056 26.998564 0.04364285 -0.02183404 0.01083095 -0.00004815 0.00008239 -0.00007662
195 1 10.283304 1.575960 20.390253 -0.03642593 -0.01468434 0.00914230 35.29496534 797.88269811 -659.59044231
196 1 20.019003 26.945636 25.972235 0.00095615 -0.04823578 -0.02782182 0.00100294 0.00005570 -0.00029888
197 1 29.166003 31.501157 15.892044 -0.02636795 -0.02343273 0.01373435 0.00004957 -0.00005154 0.00007597
198 1 2.076872 14.864527 13.163028 0.03163506 0.01203400 -0.00979732 -87.30579097 -92.68850426 -150.95419205
199 1 13.416077 1.630970 8.717341 0.02331526 0.00709731 -0.01036897 0.00002350 0.00018691 -0.00020948
200 1 0.217191 13.197935 14.876584 0.02077791 0.00897238 0.01857406 0.17537345 0.59056691 -1.07642608
201 1 16.028260 8.170208 19.591142 0.02088304 -0.01217760 -0.00353978 -0.00006531 -0.00027711 0.00014793
202 1 1.143138 9.884111 0.947753 -0.00475506 -0.02921417 0.01132961 0.00026382 -0.00032544 -0.00076988
203 1 26.980883 4.665923 11.357611 -0.02933948 -0.06731115 -0.02432193 -0.00005069 -0.00003025 -0.00007547
204 1 32.276919 20.000971 0.380920 0.02223766 -0.00774651 -0.00955152 0.00005088 -0.00023000 0.00000424
205 1 14.025394 6.935019 4.983749 0.03853891 0.03615286 -0.04176309 271.25282642 -665.81607224 -339.11903982
206 1 5.212910 17.361231 1.738566 -0.04072484 -0.00375108 -0.05007791 -0.00028989 -0.00013442 0.00005868
207 1 12.656652 22.715071 24.836273 -0.02859503 0.01822427 0.04371254 -0.00045069 -0.00023805 -0.00006352
208 1 28.510683 15.317832 2.157630 0.00545029 0.01404671 0.03217397 -0.00017538 -0.00013584 0.00013964
209 1 10.781691 17.097884 32.010214 -0.01508683 -0.00144948 -0.02884821 0.00013752 -0.00001493 -0.00016775
210 1 5.497580 30.798153 22.473040 -0.00866489 -0.00900271 0.02263568 0.17702329 -0.32593339 0.14277779
211 1 7.768588 6.818676 19.477868 -0.00678551 -0.00489619 -0.02352902 9.31536978 -6.23964245 -1.70594546
212 1 7.707780 28.432346 29.340336 -0.03634018 -0.05320479 0.01183350 -22304.88187582 -4007.16429327 3514.80062938
213 1 12.034798 9.128356 2.768647 -0.01432164 -0.04401201 -0.00136867 -0.00129219 0.00138969 -0.00133246
214 1 4.419993 8.281583 13.943445 -0.02730279 -0.03575733 0.01573890 0.00021308 -0.00028119 -0.00021676
215 1 12.012812 27.874966 28.651232 -0.04395614 0.00105398 0.01071380 0.00051309 0.00012453 0.00013697
216 1 16.721837 22.687840 2.906345 0.01446884 -0.05199756 -0.06362492 -0.00002858 0.00006699 0.00004535
217 1 15.804695 26.242164 22.826952 -0.01869221 -0.03576474 -0.02171492 0.00036894 -0.00100689 -0.00091952
218 1 20.807089 15.433125 25.466354 0.00868443 0.00180413 -0.00845523 12.99394399 6.24115926 -13.81736175
219 1 20.285332 7.464008 8.025511 -0.01256921 -0.01598963 -0.01307514 59.86652711 -395.58802543 450.66695062
220 1 17.018938 17.693945 2.781952 0.00056430 -0.04411760 -0.03616004 0.00000948 0.00014577 0.00007418
221 1 17.567697 22.845150 30.683438 -0.02470054 0.01556570 -0.00465359 -0.00004667 -0.00013862 0.00031761
222 1 5.906795 31.665943 17.611368 -0.03570357 -0.01400235 0.03163287 13.86933528 -4.93207188 37.86444128
223 1 1.063485 20.275150 0.593703 0.02431625 0.03018802 -0.02607655 -182.90177143 92.93530491 119.97920146
224 1 18.493116 6.942950 17.630638 -0.02822413 0.06083632 -0.02252402 -17245.55798532 -4715.73299312 -32056.22024969
225 1 24.726422 21.564099 7.169000 0.00653894 0.01410024 0.05841005 -56764.64452387 5018.35598816 35331.22822324
226 1 32.045745 24.300940 11.947076 -0.01851502 0.02338927 -0.00243570 0.00015893 0.00022606 0.00005917
227 1 21.736670 10.260014 31.056717 0.01478370 -0.00822660 0.00848507 0.05248892 -0.00667584 0.02699750
228 1 0.520858 14.517020 6.944686 0.01589745 -0.01238442 0.01005781 -0.00006992 0.00089468 -0.00003950
229 1 20.656687 30.316220 21.005180 -0.00041356 0.01726447 0.02692185 -0.00000804 -0.00026138 -0.00022331
230 1 10.353935 7.158815 9.238926 0.00429983 -0.00886910 0.01096455 -0.00005909 -0.00008352 0.00012108
231 1 16.147846 7.530442 24.175844 0.01499198 -0.00522709 0.03793963 -16.38725087 -22.37771437 31.29487591
232 1 14.874194 28.575162 26.631307 0.00671743 -0.02350031 -0.03041007 0.01173979 -0.02854365 0.00066174
233 1 8.394756 31.021191 13.298970 -0.02504784 -0.00087613 0.01055431 -0.00025530 0.00001549 -0.00013969
234 1 18.015054 16.268431 17.083576 -0.00086042 0.04759204 0.00483378 -0.00030760 -0.00031593 -0.00044128
235 1 29.542037 11.127763 0.032767 0.02511253 -0.01027245 -0.02371981 -0.00007985 0.00030919 -0.00027478
236 1 16.667430 6.461072 31.317121 0.02810772 0.00067508 -0.00067791 0.00010824 -0.00011567 -0.00015331
237 1 0.243608 21.772363 10.112370 -0.00472007 -0.02794002 -0.01079747 0.00087806 0.00116620 -0.00036306
238 1 25.879533 26.449749 12.894377 -0.01077922 -0.02327074 -0.00501573 0.00059843 0.00186812 -0.00072989
239 1 8.203951 1.778775 25.526365 0.00293658 0.00092004 -0.03547493 0.00002058 -0.00003865 0.00061600
240 1 10.210949 5.276993 19.858494 -0.02736431 0.00892371 0.00558959 -0.00942635 0.00828369 -0.00176767
241 1 11.834332 3.075891 31.129415 -0.02608248 -0.04827517 -0.00672489 -0.00003077 0.00009631 0.00016914
242 1 0.808404 6.633233 30.622752 0.00810060 0.00206139 0.02555836 0.05340616 1.01831330 -0.25940970
243 1 12.942484 21.457075 0.774455 -0.02337890 0.00976000 -0.00493483 0.00022055 -0.00003282 -0.00012371
244 1 18.712699 24.355572 22.211459 -0.02169922 0.01089540 -0.02869522 0.00007744 -0.00004775 0.00003417
245 1 20.314607 27.824089 24.702510 0.04070402 0.02402853 0.02137566 -0.00001775 -0.00016149 -0.00030620
246 1 7.761894 7.735165 5.059051 0.00221601 -0.00284161 -0.04279487 -166.00050745 -78.73849170 -22.14280995
247 1 29.831163 31.723949 28.154273 0.01766981 0.03058788 0.06850545 0.00015399 -0.00023831 -0.00018264
248 1 31.798466 5.551793 9.385199 -0.01538225 0.00589568 -0.04616298 0.00001851 -0.00041563 -0.00011828
249 1 11.420492 19.985796 9.455842 0.04051939 0.04417539 -0.01493199 0.00022136 0.00021713 0.00008308
250 1 11.438212 4.736245 11.993773 0.04026573 0.00087114 -0.01191269 -1121.58568959 7881.90156281 407.63489093
251 1 18.636644 18.463640 19.718016 -0.00600373 0.01342502 0.03958471 252.11204202 484.78179010 254.04060477
252 1 1.363395 26.457304 29.025286 0.00512347 -0.00282033 -0.01077777 0.06543247 -9.77105380 114.06392384
253 1 24.273671 19.474569 0.835301 -0.05938901 -0.00548599 -0.00230704 0.00000641 0.00015954 -0.00015569
254 1 2.401994 1.059003 27.886076 -0.01198428 0.02282438 0.01099735 -0.00005411 -0.00009706 -0.00009832
255 1 4.700224 15.885090 16.461710 -0.00858515 -0.03352967 -0.00320532 0.00056785 0.00035933 0.00082383
256 1 10.122431 13.172046 13.031597 -0.02340666 0.01502426 0.03911130 -0.00000061 -0.00002519 -0.00007530
257 1 9.824342 28.286478 12.892337 0.06259575 0.03325147 0.00858158 -0.00140959 0.00057793 0.00103719
258 1 28.331687 7.174186 6.194594 0.02540852 0.02249541 0.03325045 -0.00006187 -0.00011028 0.00012358
259 1 15.237344 20.232448 5.085385 -0.00130156 -0.00564240 -0.00843877 30.94740365 115.96813386 -6.89606566
260 1 4.966576 28.355517 30.331823 0.03936445 0.00932789 0.01706890 417241.10445115 -85250.64394545 -90150.22565337
261 1 27.903914 19.185646 6.684078 -0.06367097 0.01234483 0.01360742 0.00113486 -0.00102672 -0.00046159
262 1 26.110898 12.572104 5.821632 0.00494687 -0.00833097 -0.02459671 -0.00003320 0.00012016 0.00009678
263 1 24.640805 16.107794 7.390968 -0.06332526 0.00123803 -0.00359288 -0.00020976 -0.00026466 0.00000534
264 1 14.049426 18.938657 4.536300 -0.04581031 0.02904222 0.04183276 7.46274837 8.12750878 3.44939451
265 1 12.773401 5.692259 30.924710 -0.03964886 0.00960053 -0.00024551 -0.00018262 0.00010302 0.00009522
266 1 20.122112 10.021671 3.495182 0.01108753 0.01286759 0.01476182 0.00000843 0.00017309 0.00007566
267 1 13.804802 18.225461 30.027597 -0.05990311 -0.00578436 -0.00369690 -0.00000639 -0.00020306 -0.00007548
268 1 2.367335 26.499260 7.116000 0.00738174 -0.00503599 0.05541848 0.00009729 0.00009518 -0.00001897
269 1 18.971792 16.054469 1.681419 0.02865992 0.02632145 0.00550536 0.00000062 -0.00000715 -0.00013861
270 1 26.559573 13.888976 29.942455 0.06003526 0.01040365 0.02993892 0.00017809 0.00035907 -0.00012323
271 1 2.303233 14.094162 18.107186 -0.01772565 0.05166588 0.01000441 0.00085556 0.00022905 0.00180364
272 1 24.618629 10.051227 4.551647 0.02496968 -0.00972843 0.02771504 -0.00008583 -0.00004827 0.00082215
273 1 32.143963 7.195875 23.301912 -0.02063489 0.05051764 0.03538666 0.00016622 -0.00007916 -0.00017899
274 1 13.471037 22.815107 0.022516 0.04218111 -0.01890736 0.01018543 -0.00007230 0.00002273 -0.00021839
275 1 23.831702 9.775199 30.674619 -0.03337493 0.02945483 -0.00001829 10.78186828 7.07818870 63.04653926
276 1 16.623605 28.383547 15.598132 -0.04627487 -0.01904600 0.01378098 0.00015987 -0.00003609 0.00009287
277 1 24.120088 1.065311 4.489714 -0.01009455 -0.02686211 0.01100311 0.00022580 0.00010501 0.00013200
278 1 8.218242 16.268086 26.988466 0.02921096 -0.03529856 0.00550920 -0.00008546 0.00008478 -0.00012054
279 1 25.844423 31.591345 6.503297 0.00890257 0.00846592 -0.03566728 -0.00011207 0.00011960 0.00000836
280 1 6.522139 31.431976 19.151752 -0.00128674 -0.03457754 0.00335383 -14.67237518 5.57705531 -36.73138588
281 1 30.973763 19.405658 3.297092 0.01620634 0.06525063 -0.01067422 -76.41917128 320.43176734 681.10529295
282 1 30.177228 31.930691 10.005278 -0.00702647 0.00699021 0.01212091 -0.00005343 0.00005711 0.00014064
283 1 10.426235 16.304290 26.708440 0.05201329 0.01436285 0.01126592 13733.39602066 8221.98671467 2296.37601594
284 1 15.410191 13.376241 2.137426 0.04539079 -0.05178801 0.04828142 4882.85189280 9514.22376269 3938.84442063