ITEM: TIMESTEP
0
ITEM: NUMBER OF ATOMS
3541
ITEM: BOX BOUNDS pp pp pp
0.0 37.626544
0.0 37.626544
0.0 37.626544
ITEM: ATOMS id type x y z vx vy vz fx fy fz
1 1 17.834550 12.374539 23.186077 -0.05205605 0.01769111 -0.07341109 0.00001653 0.00003695 -0.00003266
2 1 30.447019 0.562453 21.367453 -0.00072393 0.01264873 -0.03000599 -148184.09120461 219254.79027336 -327819.22201289
3 1 34.208733 24.819617 16.837114 -0.03928729 0.01115452 -0.00711471 0.00006607 -0.00009422 -0.00016161
4 1 27.738654 0.315118 25.932693 0.00432324 0.01786911 -0.00363908 -0.00000458 -0.00011579 0.00031360
5 1 26.868702 5.946692 34.716739 -0.02956295 0.01872612 -0.03680733 -0.00007091 -0.00017135 0.00004547
6 1 27.751729 0.234040 18.687409 -0.02702666 -0.00419924 0.04005033 1379245.59957604 370417.98043860 -947125.07769759
7 1 6.852050 34.274011 1.001545 -0.01247040 0.04278152 0.03990017 0.00004201 0.00007349 -0.00016003
8 1 15.877732 0.800527 30.278846 -0.05872797 -0.02403951 -0.07430350 -3.87397337 0.71737999 0.66467057
9 1 22.538994 31.195449 21.360775 -0.03247018 0.02669951 0.00639494 -0.00005537 -0.00009653 0.00002237
10 1 2.568883 15.836999 16.831647 0.06195814 -0.03308080 0.05552848 -0.00004563 -0.00012566 0.00003534
11 1 8.772317 21.690364 11.623635 -0.07186382 -0.03174120 -0.01037776 -0.00000569 0.00001734 -0.00015171
12 1 3.922746 12.364354 6.103430 0.05476295 -0.07086106 -0.02858602 -0.00000262 -0.00006004 -0.00002702
13 1 24.095220 4.116774 21.146861 -0.00037258 0.03168927 -0.03744970 -0.00015857 0.00002312 0.00008471
14 1 15.523660 10.555596 27.851279 0.03046973 -0.00537454 -0.05902480 0.00019805 0.00003560 0.00005843
15 1 13.637987 23.349783 2.224385 0.00346109 0.05068302 -0.03181741 -0.00018034 0.00014910 -0.00002763
16 1 9.344549 31.926195 7.592352 -0.00546856 0.04296756 -0.03705127 -0.00012216 0.00001166 -0.00000761
17 1 13.927471 1.699125 18.233148 0.00192668 -0.00620132 -0.04655126 0.00000039 -0.00015366 -0.00001154
18 1 31.790728 22.258318 25.340201 -0.09352277 -0.02299084 0.00124537 -0.00024495 0.00001137 0.00005346
19 1 30.923689 1.044779 8.252230 -0.02270006 0.00298558 0.00476326 -0.00005004 -0.00000416 -0.00017898
20 1 35.939174 16.002205 24.831021 -0.00804730 0.01513065 -0.02074905 -0.00004791 0.00009739 0.00003098
21 1 11.185578 32.379467 3.082439 0.02319371 -0.00227750 -0.00445349 -0.00003907 -0.00000317 0.00005020
22 1 29.680152 37.450607 12.150738 -0.01706845 -0.00866317 0.01691833 1448.53454828 -989.05683314 -1286.42099844
23 1 2.752652 24.032236 23.642648 0.02668175 -0.06330772 0.06245405 -0.00009937 0.00012083 0.00005035
24 1 23.864320 24.155799 7.351704 -0.06721430 0.03007727 0.04255776 -0.00008385 -0.00013281 0.00008540
25 1 28.278773 20.379527 1.821719 -0.03956306 -0.05802218 0.01159179 0.00018577 0.00014746 -0.00000332
26 1 36.464262 17.205066 7.042346 -0.01562208 -0.00879241 -0.12230963 -0.00006663 0.00012389 -0.00001606
27 1 8.725496 3.317761 9.294051 0.02033590 0.02566241 0.00595746 -0.00008728 0.00000381 -0.00011579
28 1 5.014815 14.977062 4.073858 -0.00532078 0.01197486 0.01421266 -0.00018393 0.00008943 0.00009940
29 1 17.002039 19.872600 6.767363 -0.00890848 0.01225252 -0.00882114 -0.00000753 0.00003682 0.00002386
30 1 35.354817 36.153704 9.740644 -0.04119295 -0.00517983 0.02153093 -0.00010252 -0.00001501 -0.00005779
31 1 10.440371 34.132757 27.485988 0.06947266 0.02065864 -0.00953938 0.00009245 0.00001026 -0.00020385
32 1 28.046281 7.271640 32.374232 0.00015312 0.03608315 -0.01991399 0.00006678 -0.00009958 -0.00010859
33 1 13.929240 29.650793 24.945828 0.01185646 -0.00491618 0.01460507 -0.00004619 -0.00002725 -0.00001519
34 1 11.402539 1.727412 14.192845 0.01494469 0.04655697 0.02701737 -0.00001205 -0.00014803 -0.00007757
35 1 20.869631 9.572315 16.031648 -0.03414833 0.04431902 0.04471690 -0.00015088 -0.00012203 0.00010020
36 1 16.333431 33.678504 16.778289 0.02938804 -0.01332496 -0.01487259 0.00002854 -0.00001178 -0.00002275
37 1 14.356478 28.227348 14.176558 0.03910829 0.00210336 0.01141976 0.00001000 -0.00006609 -0.00002365
38 1 0.560210 1.876802 13.781237 -0.01678151 -0.03459525 0.05188952 -0.00001315 0.00010725 0.00000571
39 1 26.180163 29.026440 8.919837 -0.06093713 -0.03227588 -0.01786134 -0.00005141 -0.00024809 -0.00014876
40 1 34.028947 10.698632 3.620269 0.00356289 -0.02655193 0.03137008 -0.00001033 0.00006504 0.00003914
41 1 15.151967 11.332736 2.785838 -0.00421686 0.05303804 0.01743602 -0.00000615 0.00013987 0.00004264
42 1 29.064373 6.108107 22.832764 -0.02106135 -0.00207358 0.03405855 -833.28754187 1696.25670070 -53.28057727
43 1 25.688517 31.073806 10.144051 -0.01793825 -0.02533781 0.00525352 -0.00013269 0.00007805 -0.00000686
44 1 7.549291 3.707635 12.025341 0.01797098 0.02615288 0.00432316 0.00011545 0.00006928 0.00007676
45 1 33.967080 29.222803 37.167790 0.00514172 0.06094467 0.00977036 0.00002862 -0.00010066 -0.00001286
46 1 11.162768 1.268512 28.323244 0.05718879 -0.01441209 0.02571934 -0.00024411 0.00011446 -0.00007779
47 1 3.999257 32.869289 1.573042 0.00653886 0.01592591 0.01248268 0.00026554 -0.00008790 -0.00025597
48 1 12.755968 0.839562 7.439764 0.02815454 -0.01919055 0.02561595 83.98553690 -214.87464902 176.89554077
49 1 3.480101 19.589925 10.851355 0.02673775 -0.01281646 -0.06399100 -0.00016011 0.00017099 -0.00003285
50 1 7.287977 2.394193 36.118990 -0.00108642 -0.00159819 -0.02326806 -0.00001610 -0.00003904 0.00012545
51 1 2.128767 24.381372 5.343713 0.06150595 0.03466498 -0.00810885 0.00007101 -0.00010916 0.00001989
52 1 0.262962 13.402638 16.732236 -0.01315541 -0.01577532 0.00048149 -0.00009140 -0.00009825 0.00009872
53 1 32.148435 5.299490 7.128483 0.02116471 0.03907864 -0.03269433 -0.00007581 0.00000379 0.00000122
54 1 32.429468 14.477408 31.990268 -0.05455634 -0.07231349 -0.00530195 -0.00015297 -0.00007739 0.00006186
55 1 36.437866 32.918162 10.578879 0.02108851 0.04411913 0.02224631 0.00002531 -0.00021136 -0.00008228
56 1 0.122815 0.803127 22.978860 0.00027151 0.07143495 -0.04670811 0.00015678 -0.00007808 -0.00016719
57 1 31.191991 28.020558 1.070596 -0.03246609 0.04792922 -0.05607610 -0.00019382 -0.00008921 0.00001175
58 1 23.619071 17.209237 28.000889 0.00333247 -0.02447836 0.01159828 0.00003985 0.00005740 0.00004295
59 1 37.537437 6.338114 37.078571 -0.04396794 0.00672075 -0.06397549 -0.00013834 0.00010839 0.00007218
60 1 29.196947 19.494988 11.449021 -0.01029108 0.01832310 0.02146830 -13.64700247 16.26213807 4.20132906
61 1 35.773615 3.211777 0.530806 -0.03534244 0.02580490 -0.06790803 -0.00002575 -0.00004415 -0.00003745
62 1 34.486222 14.562723 11.237137 -0.07222633 -0.02256107 0.02864830 0.00022196 -0.00007629 0.00005322
63 1 24.009367 32.201247 1.097854 0.00640793 -0.00573928 0.00572147 0.00002073 -0.00011932 0.00005703
64 1 15.266950 32.799046 15.887787 -0.01028465 -0.01543715 0.00413238 0.00015902 -0.00006261 -0.00002712
65 1 11.949396 5.003322 8.703177 0.01729706 0.01992810 0.00917497 0.00002569 0.00098959 0.00022311
66 1 4.000352 4.659852 25.526464 -0.04078863 -0.07607053 -0.01416908 -0.00006334 -0.00011723 -0.00000711
67 1 3.227277 10.995088 16.101856 0.03710494 -0.06537115 -0.04090667 -0.00003420 -0.00001344 -0.00002297
68 1 7.672245 17.912694 30.952938 0.00456218 -0.02095667 -0.02431522 -0.00010320 -0.00000834 -0.00001873
69 1 27.846175 0.456459 32.201936 0.00427929 -0.06304325 -0.03376539 0.00007086 -0.00013338 0.00022364
70 1 34.416258 20.967018 26.374357 0.00301774 0.02374989 -0.04567880 -0.00002525 -0.00020568 -0.00016656
71 1 36.642309 33.066115 1.224474 -0.01779002 0.04214168 -0.04710274 0.00012964 0.00031125 -0.00002939
72 1 10.625361 29.322009 3.513939 0.03678923 0.00768291 0.01219655 0.00001917 0.00005420 -0.00014513
73 1 37.515190 28.986617 8.072940 0.00747879 -0.02433909 0.02558752 -0.00002687 0.00004860 0.00001633
74 1 11.107634 23.416064 2.932641 0.02523743 0.00206309 -0.00095995 0.00002642 -0.00011439 -0.00006384
75 1 10.137791 19.797788 6.294155 -0.02579038 -0.01720501 0.04713997 1149.33669187 991.05017970 794.95539404
76 1 0.406337 19.430569 22.989138 0.02570098 -0.00563359 0.00616922 239568.07473301 299263.68086514 379215.14414143
77 1 2.527780 5.091079 31.180095 -0.00211994 0.01111815 -0.04843061 -0.00005027 0.00007412 -0.00005353
78 1 13.444691 9.066836 28.538146 0.00916909 -0.00425228 0.01867598 0.00017366 -0.00011937 0.00007482
79 1 24.479564 33.847368 16.062797 -0.03058078 0.05614840 -0.00249270 -0.00020961 -0.00009574 -0.00006863
80 1 17.430952 20.181639 32.659971 0.00602587 -0.00209661 0.03966054 0.00010621 0.00013846 0.00012986
81 1 25.130372 33.334792 20.529045 -0.00369749 -0.03969267 0.01282517 -0.00011348 -0.00029967 -0.00003984
82 1 1.644794 15.129326 17.775158 -0.03401431 0.03426713 -0.04357182 176.90734462 60.18027338 200.87842128
83 1 2.210728 27.986402 19.227819 0.01325689 0.02266721 -0.03526615 0.00008290 -0.00001390 -0.00007851
84 1 14.494510 9.697005 11.382365 0.03130277 -0.01009714 0.02054863 -0.00000565 -0.00004648 -0.00021817
85 1 22.236912 2.960638 9.213837 -0.03084268 0.04487941 0.02922283 441.53297089 -382.75966683 -294.82944529
86 1 20.547214 0.089704 25.683562 0.01461941 0.04436738 -0.00592357 0.00022544 0.00012538 0.00003677
87 1 8.775826 33.536028 16.454701 -0.01257755 -0.03002834 0.00301579 -0.00011621 -0.00004833 0.00020237
88 1 22.214974 25.676217 29.978912 0.04817873 0.02838232 -0.01168776 0.00012350 -0.00003575 -0.00007442
89 1 9.039303 20.531116 10.553421 0.00738748 -0.01732403 -0.03175167 -0.00012411 0.00005433 0.00076947
90 1 12.022373 11.923699 26.255441 -0.00059911 0.00863963 -0.02692609 -0.00002559 0.00010262 0.00009062
91 1 27.722378 17.627502 29.340733 0.00707074 0.00778164 -0.00563793 -8.60523873 -67.99073698 32.34054171
92 1 13.445383 1.472527 8.586772 -0.04607384 -0.01467471 0.03722036 -93.90544608 -86.21649115 -156.23437408
93 1 20.423225 31.726747 4.406892 -0.02745860 -0.01500289 0.01219463 -0.00007169 -0.00001871 0.00006160
94 1 32.993444 15.656848 8.930114 0.00129882 0.05665205 -0.00069881 -1.28576730 -0.50168312 1.91412392
95 1 30.217284 23.825455 31.375811 -0.01829368 0.01062126 -0.03446413 0.00012678 0.00035015 0.00008691
96 1 37.229280 8.696510 7.869507 0.03749304 0.00195931 -0.03907221 -0.00004331 -0.00011042 -0.00003474
97 1 0.667896 8.928210 36.523242 0.03571930 0.01229040 -0.02834945 -0.00003705 0.00006647 0.00012865
98 1 20.605104 15.916768 11.958074 -0.00836394 -0.03226459 0.04755459 0.00005627 0.00009017 -0.00005652
99 1 0.742515 1.851105 11.461581 0.06077731 -0.01321825 0.03179089 0.00004488 0.00004557 0.00009167
100 1 3.271032 5.778324 17.682921 -0.00945058 -0.05184282 0.00464877 0.00021172 0.00001581 -0.00008255
101 1 14.434492 34.311540 35.391674 -0.00966256 0.01368917 0.01333019 -0.00011576 -0.00021024 0.00000006
102 1 30.549004 34.680904 19.729833 -0.02167455 -0.01601235 0.01893801 0.00061060 -0.00247304 -0.00066111
103 1 33.718244 11.143247 8.270083 -0.04277782 0.00846623 -0.05631589 -0.00000354 -0.00075568 -0.00016665
104 1 31.336425 37.196201 23.657262 0.02581460 -0.00149864 0.08321150 -0.02268580 0.02516509 -0.05835609
105 1 2.337710 33.675864 26.656087 -0.03955526 -0.00656924 0.05933370 -0.00017427 0.00006655 -0.00004851
106 1 27.163598 16.174333 19.827141 0.02264910 -0.01235928 0.00613882 -0.00003005 -0.00012164 -0.00002342
107 1 30.567886 26.511319 13.454731 0.05326074 -0.01665874 -0.05758148 0.00008655 -0.00000197 -0.00003864
108 1 37.168146 31.545862 1.594566 -0.02848262 0.02457506 0.01703379 0.00009455 -0.00015038 0.00004648
109 1 27.563138 28.516768 20.096852 0.04744960 0.01006720 0.00122937 0.00004165 -0.00002921 -0.00003112
110 1 20.844812 9.034678 7.652831 0.00508733 -0.01552553 -0.04123741 -0.00011984 0.00009259 0.00005246
111 1 22.835715 27.077873 31.481217 -0.01094756 -0.02739847 0.03145407 0.00017612 0.00001985 0.00009884
112 1 9.807524 10.811959 33.713698 -0.04196323 0.00419650 0.03184134 -0.00014506 -0.00004681 0.00000667
113 1 10.756937 11.611133 2.879073 0.01128480 0.01156604 0.02161256 -0.00006916 -0.00004730 0.00005889
114 1 32.139814 33.481018 15.754746 0.05105423 0.00279635 -0.00525033 -49.54401069 22.12328302 -38.56534076
115 1 35.242140 0.819756 17.178435 0.01551479 -0.00289694 0.00664231 0.00014249 0.00009876 0.00010934
116 1 9.642736 8.315136 35.734119 0.03355504 0.03827426 0.00462304 -0.00007560 0.00002570 -0.00013284
117 1 4.729858 2.557833 3.045567 -0.00407944 -0.02289818 0.04089598 -0.00006037 -0.00007349 0.00020650
118 1 21.253288 4.496048 1.963712 0.01020842 -0.01982632 0.01960137 0.00002372 -0.00010130 0.00000582
119 1 21.311477 28.605581 15.949218 -0.00076686 -0.03852330 0.01037510 9501.61686683 -1843.29057024 6434.91791347
120 1 28.540759 15.710505 7.078851 0.02967726 -0.00045837 -0.03185274 -0.00029553 0.00001552 -0.00027842
121 1 9.685635 30.798021 21.374382 -0.00704263 0.01090331 -0.00602657 0.00013561 -0.00004648 -0.00016200
122 1 17.950268 4.964117 30.490228 -0.02456511 0.00287941 0.03061694 0.00034784 0.00066895 -0.00010388
123 1 22.128723 4.908168 18.474971 0.00415324 0.04873300 -0.01514492 -0.00012842 0.00022588 -0.00006724
124 1 21.568555 24.250378 19.789916 -0.04894483 -0.05763139 0.00011954 0.00004381 0.00008572 0.00022731
125 1 5.956803 34.153860 8.493890 0.00250163 0.00868422 -0.05941112 -56.15225103 -22.46154492 -12.59164470
126 1 28.569635 1.661625 11.231957 -0.06639305 -0.01060168 0.01149449 0.21528134 -0.35581381 0.17777340
127 1 18.231002 28.611101 16.848454 -0.00416397 0.00383143 -0.02392625 -0.00107415 0.00012064 0.00033717
128 1 29.703414 8.631601 7.410479 -0.04069620 0.00844575 0.01355267 6875568.94483132 12155493.28986390 -9398659.90420861
129 1 29.558293 20.850371 19.001381 -0.00741820 0.03447337 -0.03256013 -0.00031429 -0.00011124 -0.00008559
130 1 6.047103 4.874050 27.512917 0.03409198 0.07481921 -0.01367368 0.00014045 -0.00002613 -0.00010243
131 1 19.967278 29.967142 19.433861 0.01083798 0.02251107 0.01881638 7659.04930076 1482409.05208361 -1168786.93164809
132 1 34.828971 28.819280 28.113348 0.05547063 -0.02151016 0.01342514 0.00012065 -0.00007041 0.00000643
133 1 13.539397 29.700410 20.321657 -0.01839437 -0.02383643 -0.03989428 0.00005634 0.00001072 -0.00001440
134 1 35.517066 25.203004 0.731565 0.03381977 -0.03272838 -0.01236092 0.00005814 0.00001091 0.00003774
135 1 17.005642 2.000845 28.514451 -0.01882112 -0.05494646 -0.00061067 -0.13159218 -0.14008061 0.20582786
136 1 28.171189 15.246085 32.298829 0.03229784 0.00313896 -0.05063405 0.00036961 -0.00114496 0.00136292
137 1 2.780279 28.654499 29.132491 -0.01779264 0.01340077 0.02962398 0.00003020 0.00003251 0.00010397
138 1 8.769269 29.937726 34.391515 0.01240749 0.07664347 -0.00903249 0.00006354 0.00004785 -0.00001086
139 1 9.492807 15.307893 14.634913 0.00871407 0.00266063 -0.02002911 -0.00002443 0.00002132 0.00002504
140 1 12.488608 7.022901 37.086752 0.01811121 0.00120754 -0.00009953 -0.00006274 0.00017937 -0.00007351
141 1 29.137612 8.675399 19.698884 -0.00541064 0.03400135 0.02394488 0.00003390 0.00078860 -0.00120949
142 1 29.560580 30.073261 34.265001 -0.00406424 -0.05506647 0.03682060 -0.00011161 -0.00002180 -0.00006636
143 1 8.465473 5.748388 4.601503 -0.00328712 0.03028247 0.03819414 225108.02424833 260847.27134132 -319899.29353084
144 1 26.570207 36.416488 16.783052 0.02411232 -0.00969516 0.03368836 0.02672157 0.03317384 0.04381131
145 1 30.718047 0.203550 7.087975 -0.05661664 -0.00773164 -0.06170988 0.00011623 0.00003743 -0.00051447
146 1 27.745159 14.762280 0.059453 0.02877922 -0.08170168 0.00055243 800.13602466 4618.05674910 -1505.16684134
147 1 11.822841 22.556997 6.890906 -0.00537541 0.01183416 0.03887574 0.00101441 0.00166966 0.00054567
148 1 26.777472 19.294957 15.659531 -0.03531496 0.00988887 0.02337939 -0.00028976 0.00005499 0.00052761
149 1 11.667836 13.772327 4.960577 -0.00231192 -0.01177653 -0.03163840 -0.00000454 0.00003974 0.00000328
150 1 26.055676 4.447360 16.478991 0.01150360 0.02088750 -0.00387695 -0.00017734 0.00027709 -0.00025232
151 1 19.077366 33.453940 0.801794 -0.03202024 -0.00037214 0.00235965 0.00009322 0.00000053 0.00000324
152 1 36.378375 27.032517 5.120612 0.00345025 0.00502035 0.00005868 -0.00000517 -0.00010807 0.00014032
153 1 8.796373 33.343471 21.211583 0.04268456 -0.00409218 -0.01013707 -0.00001153 0.00015486 -0.00006187
154 1 7.218045 17.431250 21.440781 -0.02591344 0.02999864 0.01774337 -0.00000389 0.00006189 -0.00004488
155 1 22.801332 27.619618 5.765870 0.05276526 0.00568329 0.02172898 0.00004798 -0.00009215 0.00001581
156 1 25.905427 17.662235 17.021589 0.02564895 -0.00024235 -0.06528024 -0.00005381 0.00003136 0.00019640
157 1 32.782972 9.480283 4.558718 0.03726709 0.00162339 0.01605813 0.00079460 -0.00005208 -0.00084149
158 1 11.611290 16.387180 31.256767 0.01366692 -0.03987612 -0.03701438 0.00010934 -0.00007675 -0.00009592
159 1 27.966459 35.696690 21.283962 0.03573046 -0.01553095 0.03553709 -0.00144675 -0.00351402 0.00205766
160 1 4.067000 33.845137 2.824982 0.04454987 0.00375660 0.04418491 -888.47986156 172.77314495 -725.69939603
161 1 27.311922 16.746971 11.677419 -0.02377595 0.01077351 0.01928490 -0.00133507 -0.00188998 0.00029515
162 1 21.105791 30.840011 17.525415 0.04135542 0.00411429 -0.02181801 -0.15472796 -0.15132877 0.24212753
163 1 8.525039 1.679100 28.696998 0.01167821 0.01273251 -0.01290553 0.00000156 -0.00000566 0.00002040
164 1 23.123459 4.055524 22.911494 -0.00624007 0.01873275 -0.03153813 0.00002628 0.00008783 -0.00006965
165 1 13.351396 13.090047 36.503565 -0.01423173 0.03955084 0.08166991 0.00010099 -0.00007933 -0.00001200
166 1 16.538219 35.033344 21.701357 -0.00463086 0.00239662 0.02154245 -16621.14519550 13241.18342220 -664.08870536
167 1 24.230044 26.148932 8.375920 0.01890212 0.02171794 -0.01411794 0.00001408 0.00006589 -0.00011951
168 1 16.699505 31.971056 7.889338 0.03874221 -0.04780871 -0.05631716 -0.00000519 0.00000281 -0.00002206
169 1 33.198097 17.266389 37.493484 0.00675822 0.00545736 0.00476091 0.00031501 0.00018935 0.00005083
170 1 6.179104 30.175223 0.722633 -0.04230066 0.01238122 0.02966429 0.00022872 -0.00061214 -0.00004165
171 1 33.227205 23.655394 19.864284 -0.02123819 -0.01378193 -0.03964966 0.05167312 -0.03031256 -0.03627619
172 1 19.061377 8.854858 14.048914 -0.02332377 -0.02175331 0.05087054 0.00000602 -0.00008521 -0.00006377
173 1 15.033852 15.437463 13.790642 -0.02351978 0.01325403 0.02745489 1963.84716347 3866.18608473 1681.98590048
174 1 36.751241 3.769317 10.614649 -0.02611620 -0.01248450 0.00422357 -0.00002510 -0.00006518 -0.00002350
175 1 35.629060 8.334232 14.413169 0.00314843 -0.00094125 0.01955869 -38.02804690 107.37097288 61.65249252
176 1 32.918075 13.319542 29.797079 0.00319744 0.00932351 -0.03437736 -0.00003708 -0.00008337 0.00012012
177 1 36.400584 33.553930 12.034467 0.01272348 0.05934726 -0.02935203 11209.94390975 6226.72912885 -4946.86012747
178 1 19.768933 17.715372 10.167655 0.03079054 -0.04365867 -0.02950807 0.00008435 -0.00020897 -0.00012362
179 1 25.449882 14.855073 2.060790 -0.04754694 -0.02719603 -0.05366601 71378423.67667922 14322107.41012390 47375023.02407249
180 1 30.324104 5.365359 20.287039 -0.00100964 -0.00244095 0.01568936 -0.00395212 0.00312355 0.00785612
181 1 36.840986 35.864983 33.408034 -0.01509256 0.02125304 -0.02470333 -0.00000527 0.00017423 -0.00005656
182 1 19.927764 3.341451 22.016268 0.00548189 0.01067293 0.01385309 -23.18748955 58.10406244 12.04595238
183 1 32.368260 30.561460 31.842469 -0.00989230 0.02331812 0.03747785 -7.54261781 8.40009484 -59.19775556
184 1 7.911756 20.904609 24.248831 -0.01639987 -0.04826498 -0.01757853 0.00014794 0.00010991 0.00003335
185 1 32.916803 17.557885 16.790865 -0.01805953 0.01568567 0.01180494 -0.00010804 0.00017942 0.00004074
186 1 37.527538 24.633298 4.690244 0.00704580 -0.00787382 0.03578590 0.00003788 -0.00007992 0.00009827
187 1 23.584187 8.908759 16.374246 0.01904185 -0.02916312 -0.00882286 0.00012185 -0.00011821 -0.00001054
188 1 7.790819 9.947011 27.214015 -0.01071751 -0.04373682 0.03075714 -0.00007261 -0.00000701 0.00002293
189 1 25.529937 8.955587 2.819905 -0.06291085 -0.01833093 -0.03190182 0.00005442 0.00000894 -0.00004839
190 1 33.127433 26.803793 6.710707 0.02379779 0.02962000 0.03331599 0.00019890 -0.00000933 0.00002634
191 1 30.745911 15.320255 32.377037 -0.05082523 0.00102765 -0.01556040 0.00041222 -0.00017157 -0.00001432
192 1 29.480675 20.906199 32.090993 -0.00179427 0.00719063 0.02534482 -10.93862241 16.01526343 7.67862678
193 1 18.253674 5.234414 20.543426 0.05491654 -0.01371709 -0.00443067 0.00582396 -0.00664046 0.00500216
194 1 22.439424 19.451931 0.185929 -0.04242019 -0.00175780 -0.02430440 -0.00019408 0.00001179 0.00020415
195 1 35.086188 25.322995 24.496908 -0.04325055 -0.01345607 0.00298437 0.00019040 0.00017356 0.00019747
196 1 20.217407 33.297694 37.482634 0.01602228 -0.03110036 0.00982418 -0.00015601 -0.00007817 0.00006440
197 1 26.165746 22.168319 30.873139 0.03265442 0.05458467 -0.01489508 -0.00182320 0.00102946 -0.00078197
198 1 23.598964 1.335052 22.378227 0.02519896 0.03762452 -0.02965921 0.00080282 -0.00061214 0.00032231
199 1 18.592076 20.450895 26.859980 -0.01211009 0.06908046 0.05621815 0.00006943 0.00008003 0.00011051
200 1 26.119306 21.688947 17.111583 -0.01359159 -0.04783418 0.01210144 -466.37711976 -7231.31404148 2166.79907581
201 1 9.461911 18.079107 17.779662 0.00523160 -0.08732403 0.02948958 0.00000954 0.00001181 -0.00006384
202 1 15.961788 6.346209 5.519256 -0.01528455 0.01499897 0.01785802 -0.00001751 0.00008513 -0.00002442
203 1 5.663381 23.682380 19.985404 0.05016296 -0.01511839 0.00468601 -0.00006889 0.00012989 0.00011364
204 1 18.008663 34.340732 30.929631 -0.00284545 0.00755669 0.03121416 0.00039906 -0.00074826 0.00006220
205 1 5.089726 21.556405 8.471331 0.00715292 -0.04585072 -0.00130524 -0.00027171 0.00035851 0.00017287
206 1 2.506212 35.135774 19.539499 -0.02669153 -0.00601853 -0.00259117 -0.00009484 0.00004630 -0.00017684
207 1 26.957517 21.527599 1.484924 0.01693929 0.05411952 0.04588215 -0.00017578 0.00016167 -0.00013926
208 1 27.463619 1.743762 2.341731 -0.00813497 -0.01259078 0.05111459 -0.00002624 0.00010689 0.00003101
209 1 6.188066 0.250387 11.035149 0.02727491 0.05670724 -0.02818649 -0.00001833 0.00053999 0.00047123
210 1 9.288846 19.980714 15.074232 0.04252238 0.00333152 0.04543793 -0.00007579 0.00004495 -0.00007404
211 1 2.606340 31.155816 6.375041 0.03494366 0.06444091 0.05109443 -0.00057258 -0.00057962 0.00024823
212 1 7.935674 15.519180 30.901871 0.04131441 -0.02396524 -0.01989549 0.00014551 0.00022791 -0.00004144
213 1 37.178724 0.339868 29.176318 -0.02136272 0.02310697 -0.05382933 -0.00007121 -0.00009887 0.00010918
214 1 33.386078 15.623329 5.298960 0.08114093 -0.00579563 -0.02398959 0.00028455 0.00009579 -0.00257762
215 1 32.088440 29.584440 10.271757 0.01434491 0.02382467 -0.02259527 -0.00005333 -0.00008043 -0.00030124
216 1 32.893586 10.418195 25.430840 0.02426134 -0.02742190 0.04564384 -0.00013902 0.00004866 0.00013821
217 1 27.250484 23.440870 22.270584 0.01711192 0.01342386 0.07948218 -0.00007902 0.00005594 0.00023989
218 1 8.421354 14.247635 5.282433 -0.02236847 -0.03916235 -0.00539978 -0.00001370 -0.00012300 -0.00018811
219 1 28.523096 18.667820 16.889405 0.05154512 -0.01671326 0.09877656 0.00108118 -0.00156565 0.00020637
220 1 33.033470 2.282184 32.345224 -0.00255491 0.00303780 -0.07552700 0.00004742 -0.00011124 -0.00002255
221 1 22.487243 16.171598 12.457545 -0.05188007 0.03385390 0.01789674 -0.00007879 0.00009197 -0.00012598
222 1 4.211250 25.269346 22.493719 0.00876905 -0.00561796 0.00167771 0.00013184 -0.00003470 -0.00017936
223 1 12.428325 36.064089 13.638721 0.01660162 0.00418634 -0.02134007 0.00007516 -0.00006158 0.00018588
224 1 26.920429 37.067148 7.543401 0.03132660 -0.00809687 0.01382710 0.00024439 -0.00005711 -0.00034732
225 1 34.791209 29.130379 36.795878 -0.02389137 0.00796578 -0.01798036 0.00006408 -0.00000882 0.00034144
226 1 6.878371 24.512681 22.553130 0.01461281 -0.00839312 0.02120451 0.00007113 0.00005178 0.00004896
227 1 16.008212 2.410282 11.688528 -0.02053159 0.03656262 0.05034169 0.00006616 0.00010480 0.00024256
228 1 6.265562 14.112123 18.700660 0.01683223 0.02334692 -0.02032962 0.00045516 0.00004524 0.00008866
229 1 9.791249 20.616051 35.744510 0.00186584 0.00447247 -0.02126324 -0.00006377 -0.00003970 0.00014564
230 1 18.001439 26.092511 34.060953 -0.05410662 0.00844535 0.01592054 -0.00003782 0.00012751 -0.00021049
231 1 34.465210 19.812205 20.468481 0.02235700 0.04123244 -0.00758474 -0.00025757 -0.00115296 -0.00041479
232 1 5.346587 11.226628 22.930981 0.00108642 -0.00699527 0.01553687 0.00016403 0.00002128 0.00006206
233 1 8.487802 29.949996 25.044930 -0.01702194 -0.00197358 0.00944992 -0.00010310 0.00006646 -0.00010561
234 1 28.364737 31.542190 9.405097 0.01610021 0.03663322 0.02890899 -0.00012189 0.00010185 -0.00003725
235 1 33.896696 11.252494 32.109655 0.03107612 -0.00981904 -0.00025934 -0.00006899 -0.00002932 -0.00009783
236 1 33.616438 25.802615 9.334574 0.01101964 0.03382243 -0.07132861 0.00006535 0.00001420 -0.00002428
237 1 15.966573 27.709947 15.641381 0.05734177 -0.03120554 0.02873436 -0.00030075 -0.00026307 -0.00012882
238 1 10.068816 26.340613 10.117756 -0.05184807 -0.02365319 -0.04816191 -0.00006583 -0.00003771 0.00001744
239 1 12.921923 7.185863 8.600715 0.00661002 -0.01041760 -0.01745077 0.00021274 -0.00003575 -0.00000692
240 1 18.843191 28.305819 17.566119 0.02372681 -0.01024259 0.03155883 0.02153404 0.02381792 0.02234685
241 1 17.896252 22.512020 1.335944 -0.03638514 0.01924478 0.03304586 0.00005271 -0.00002563 0.00000587
242 1 26.979050 28.762947 32.136720 -0.02542827 -0.00633558 0.02854698 -1187.78518539 1906.27624129 -3802.97012963
243 1 26.592957 34.926198 16.019375 0.03275294 -0.05950207 0.00319127 -0.00061359 -0.00094411 -0.00084785
244 1 20.481268 15.861085 3.444630 -0.04988071 -0.00233890 -0.00960305 -0.00020608 0.00013200 0.00005299
245 1 32.686762 1.620517 27.214864 0.04992073 -0.00341589 0.01137961 0.00000794 -0.00005256 0.00016126
246 1 10.519403 26.130408 7.556802 -0.01009908 -0.03455687 0.02286708 -0.00012559 0.00007867 0.00003231
247 1 29.624497 1.642449 3.668266 -0.00737604 0.03442411 0.02488773 0.00002999 -0.00004685 -0.00001496
248 1 5.830860 23.403731 17.719015 0.03417733 0.03234691 0.01544734 -0.00011159 -0.00007951 0.00018983
249 1 35.008012 36.921024 25.599163 -0.00855862 -0.02728337 -0.01982328 -0.00016899 -0.00004882 -0.00004867
250 1 24.985744 36.071263 34.431636 -0.04906146 0.00703041 -0.01654306 -0.00007558 0.00003602 -0.00003600
251 1 13.190054 34.398477 10.081403 0.01092678 0.00043829 -0.01541714 0.00003804 -0.00051811 0.00044008
252 1 19.572290 23.688036 1.937755 0.01570665 -0.01378913 -0.00456646 0.00017428 0.00000155 -0.00000209
253 1 16.721859 5.266064 3.164989 -0.03120975 0.00792848 0.00343697 0.00009441 0.00007013 -0.00022372
254 1 21.873880 21.703198 1.268143 0.02898070 -0.01342102 0.03843913 0.00003438 0.00019595 -0.00018685
255 1 29.074507 28.690408 26.125605 -0.02626012 0.01860028 -0.05076062 -2.23536836 -1.86572659 4.61520664
256 1 10.924688 18.694612 24.229158 -0.00045957 0.00733563 -0.02661589 0.00005565 -0.00011126 0.00008721
257 1 31.780777 25.602663 2.928065 -0.02374023 -0.01424010 0.02423690 0.00016813 0.00012556 0.00001797
258 1 31.175758 25.691055 26.869180 0.02820305 0.00234018 -0.02624985 0.00122132 -0.00184368 0.00027985
259 1 12.789023 21.315393 11.939171 -0.01905992 -0.00803121 -0.05157261 0.00005999 0.00022423 0.00006274
260 1 34.973528 14.868706 18.438990 0.03701859 0.02533146 0.00507837 -0.00078604 -0.00001605 -0.00000328
261 1 12.738338 10.141946 36.235798 -0.04473265 0.01015649 -0.06233232 -0.00008869 -0.00006685 0.00005197
262 1 36.420621 9.118226 27.586707 0.05348938 0.01057186 0.01559981 -0.00001634 0.00000600 -0.00017942
263 1 12.898103 33.691904 19.347757 -0.00802843 0.00762174 -0.01292580 -0.00079798 -0.00008182 -0.00040858
264 1 10.019162 21.744060 12.530302 0.01207284 0.05051490 0.01192911 -0.00009535 0.00008318 0.00008758
265 1 11.641045 25.876771 2.337023 -0.03135999 -0.06031119 -0.00335280 0.00011534 -0.00000157 0.00013142
266 1 16.235457 0.262061 22.041224 0.05463993 0.03171504 -0.01916832 0.00119907 -0.01352953 -0.00147523
267 1 16.352308 2.685194 0.540375 0.02604443 -0.01517203 0.04861443 0.00012599 0.00007188 0.00001472
268 1 0.275865 17.551957 5.886977 -0.02543709 0.03727489 0.04313573 0.00013918 0.00000848 0.00019606
269 1 7.231688 17.994247 26.992732 0.01988067 0.04123673 -0.00762448 0.00012124 0.00016638 -0.00010061
270 1 18.494868 20.208930 7.842391 -0.05762148 0.04801071 -0.03568119 -0.00016749 0.00007843 -0.00013808
271 1 25.838415 1.224228 2.649822 -0.01302942 0.02959724 -0.04988028 -0.00006867 -0.00002984 -0.00001966
272 1 37.384157 23.146530 36.739999 -0.00372471 -0.00646697 -0.02071995 -0.00001049 -0.00009470 -0.00004282
273 1 19.808113 33.452433 9.960483 0.03205642 0.04779159 0.02083709 0.00001747 0.00001341 0.00004241
274 1 10.871282 8.464252 10.612722 -0.06755032 0.01041094 -0.04774398 -0.00007850 -0.00000529 -0.00005914
275 1 23.302272 0.264916 12.518240 -0.02815381 -0.02663174 -0.00650626 0.00012660 -0.00050588 0.00079440
276 1 34.069160 35.646301 24.578532 -0.00321808 0.02087530 0.00412010 -24433.99587608 -27330.73634257 -16030.00337191
277 1 8.602991 6.135070 31.082279 -0.03048173 0.01493690 0.03718001 0.00006731 0.00014781 -0.00001163
278 1 30.170895 35.971584 8.492665 -0.00542501 -0.06890492 -0.02297659 -281810.32303589 -164816.85936676 -204694.31494190
279 1 5.952639 28.150560 28.798983 0.04842893 -0.00436429 0.04575555 -0.00006056 0.00002281 0.00011299
280 1 1.746942 36.975267 21.859297 0.00901383 -0.03192698 -0.03686095 0.00010198 -0.00010926 -0.00011278
281 1 20.956966 14.260314 12.735115 0.02460362 0.03522481 0.03373568 0.00003336 0.00010683 0.00000966
282 1 5.781363 25.174294 19.388399 -0.04419571 0.01992353 0.03011407 -0.00001598 0.00006081 0.00007574
283 1 25.776439 25.776818 34.717855 0.04230889 -0.02235788 0.00005746 -0.00039109 -0.00094693 0.00089043
284 1 7.394695 5.505240 32.565974 0.03679501 0.02353978 -0.00162152 -0.00015710 0.00002480 0.00003333
285 1 21.647900 15.627145 32.999574 0.03854921 -0.02253773 0.02978471 -0.00015002 0.00008927 0.00012722