ITEM: TIMESTEP
0
ITEM: NUMBER OF ATOMS
2810
ITEM: BOX BOUNDS pp pp pp
0.0 34.427616
0.0 34.427616
0.0 34.427616
ITEM: ATOMS id type x y z vx vy vz fx fy fz
1 1 3.879994 30.352654 6.614399 0.02193266 0.02374896 -0.02409745 -0.00000878 0.00000466 -0.00015878
2 1 18.375871 21.416580 9.766945 0.02283103 -0.02394220 -0.05503304 -51740.12058378 -170748.80064125 -10816.73421450
3 1 26.222839 7.243913 0.098692 0.04536261 0.00230918 0.00156356 -0.43027353 -0.08513128 0.15303561
4 1 22.063543 1.383561 17.242494 -0.02485869 -0.01916669 -0.03305294 0.00004875 -0.00017913 -0.00001589
5 1 20.934528 8.499205 17.712878 -0.01331028 0.00059886 0.00582695 18202.67294497 97013.59258068 -138915.03122073
6 1 30.793371 33.786527 7.641120 0.00043106 0.01645547 0.03403385 0.00003146 0.00014848 0.00000262
7 1 6.443533 32.389790 5.960099 0.01048587 0.00014413 -0.04614173 0.00007333 -0.00014356 0.00003100
8 1 19.591643 20.481606 32.459835 -0.02385864 0.00002442 -0.00417659 -0.00020395 -0.00007113 0.00002351
9 1 28.564773 3.581571 3.097267 0.03038110 0.07775053 -0.02528462 0.00021083 -0.00019166 0.00003698
10 1 4.384537 34.031408 13.617149 0.02607209 0.06366232 -0.01639748 -0.00005663 -0.00012416 -0.00007536
11 1 29.839120 30.749573 7.240573 -0.00607635 -0.00246349 0.00606956 0.00025537 -0.00004687 -0.00013961
12 1 4.224374 12.232283 28.657778 -0.01707729 -0.05534798 -0.04955860 -0.00005200 0.00013995 0.00001725
13 1 23.164255 2.345432 14.917616 -0.01747733 -0.00208219 0.01651716 0.00013555 0.00013544 0.00021567
14 1 16.777578 26.107763 20.142442 0.03038160 0.00899787 -0.00493127 0.00002138 -0.00006442 -0.00006718
15 1 6.784283 7.416118 5.823529 0.01609423 0.00685790 -0.01569990 0.00004866 -0.00011113 -0.00007007
16 1 15.758774 10.215777 33.966510 -0.01897646 -0.03296563 0.03394167 0.00021525 0.00018797 -0.00012956
17 1 12.348188 1.008891 33.013762 -0.02778534 0.03018743 -0.05433720 -0.00018403 0.00005280 0.00012310
18 1 4.061833 19.744320 17.309949 -0.00136157 0.03328617 -0.02165099 0.00001601 0.00002337 -0.00001133
19 1 5.667079 7.584339 32.974152 0.02355603 0.02258503 0.01296456 0.00008774 -0.00006821 -0.00014820
20 1 8.841765 12.842925 18.213650 -0.00824754 0.01621184 0.00832374 5459.69781238 10746.11550764 -768.78105777
21 1 6.998643 9.585578 28.821361 -0.01439936 0.01389784 -0.04708022 -0.00013029 0.00007047 -0.00008357
22 1 30.521532 24.531079 0.227275 -0.01726256 -0.04130010 0.01235772 0.00017097 0.00010117 -0.00013879
23 1 17.368764 6.602242 2.068127 -0.03766541 0.00465975 0.02908807 -0.00030154 -0.00002281 0.00008190
24 1 25.651113 21.988399 33.643611 -0.02150061 0.02922498 0.00851681 546771.62321600 -71355.91950711 334701.58923103
25 1 14.472817 31.835369 9.805268 -0.00050293 -0.00984791 0.01889639 0.00008798 0.00008201 0.00008417
26 1 14.052826 15.400930 25.100467 -0.04461376 0.05021438 0.02198320 -0.00003722 -0.00005813 0.00014955
27 1 27.963976 3.825505 4.441005 0.01308174 0.04410445 -0.00367093 -1.02293206 -0.61245026 -0.22776334
28 1 11.977294 3.640517 20.275824 -0.00249746 -0.02319912 -0.02948411 0.00003918 -0.00012474 0.00004609
29 1 34.094946 15.914771 15.953934 -0.03167869 0.00610083 -0.05789531 -0.13871731 0.06556421 -0.00101216
30 1 23.132916 21.266989 28.354577 0.02603973 0.00768427 0.03924725 1469345.37738851 822757.50265233 3374965.25905492
31 1 24.343062 26.216443 29.863954 0.00358118 0.03352136 0.02369393 3580860.44062219 -193839.54063261 -7493922.34718402
32 1 17.672743 30.249542 17.586736 0.01164440 -0.00084408 0.03572328 -0.00012669 0.00008958 -0.00014371
33 1 28.591496 31.683378 3.146374 -0.04857857 0.01517616 0.00133270 -0.00002304 -0.00003988 0.00011869
34 1 0.632592 15.884545 24.822670 -0.01896322 0.00398062 0.02814799 -35272.54986145 1552.43034817 1571.06840363
35 1 28.460923 14.349611 0.194084 -0.03530637 -0.01002262 0.03443323 0.00002663 0.00009491 0.00010931
36 1 18.536048 7.044610 34.344261 -0.00712552 0.01501491 -0.01804121 -0.00008632 -0.00007052 0.00002149
37 1 4.023481 13.588023 14.390279 -0.02386605 0.03052500 0.00388619 0.00017222 -0.00015354 -0.00020709
38 1 2.651964 11.606311 10.139430 0.01551516 -0.00722055 0.02210480 -0.00010940 -0.00000965 -0.00002134
39 1 24.597219 0.114151 17.980359 -0.00799856 0.05143218 -0.01589344 -0.00002681 -0.00003445 0.00001157
40 1 15.210113 26.841815 26.712742 -0.04400144 0.01550305 0.02823792 0.00000190 0.00011434 0.00011276
41 1 28.145388 28.271239 18.176959 0.04780139 0.01736637 -0.01449995 0.00017779 0.00009443 0.00013087
42 1 2.215349 33.061879 29.216206 0.04791216 0.00563826 -0.00604081 0.00007073 -0.00001825 -0.00002319
43 1 21.708525 5.189463 27.609886 0.02199215 0.01763222 -0.02373135 44.18806751 -33.22723520 64.14089899
44 1 1.205990 6.525587 17.691046 0.04402014 0.03626461 0.00495810 0.00003493 0.00012199 0.00005624
45 1 0.318238 27.486627 7.241893 0.01111222 0.01740524 -0.03522610 -0.00010224 0.00010028 -0.00003307
46 1 8.296867 27.571771 3.257057 0.02900884 0.00709433 -0.07354237 -885755.43275658 766520.54113046 -1621732.14158801
47 1 17.956257 8.552081 13.061986 -0.00325262 0.04447893 -0.00886108 -0.00027768 0.00008541 -0.00030597
48 1 4.941541 19.641617 13.209778 -0.05642806 -0.02130301 0.03423136 0.00014360 -0.00009213 -0.00003654
49 1 7.255243 19.509969 23.709854 0.00076755 -0.01841754 -0.00087463 -0.00000145 -0.00008319 0.00006708
50 1 11.105028 10.080576 21.572598 0.03397736 0.03257442 0.04467077 0.00018782 -0.00020939 0.00021857
51 1 2.454375 23.795898 1.571023 0.00103809 -0.01191700 -0.05163604 -0.00004629 -0.00014123 0.00002737
52 1 2.715305 1.113927 22.770577 -0.03063242 0.00952817 0.02254307 -0.00020524 0.00006903 0.00011608
53 1 24.667029 27.500024 11.558434 -0.03462793 -0.02106925 0.05713049 -0.00009802 -0.00020393 0.00016456
54 1 0.624447 7.061685 18.041659 -0.00048835 -0.03929226 -0.01045712 2816.26796122 12.63997152 4312.67577397
55 1 8.150247 5.718609 16.652420 0.00533045 0.00497241 0.02741699 0.00016281 0.00002689 -0.00014565
56 1 29.433356 28.212186 13.358505 -0.00916309 0.04131200 -0.00629348 -0.00019827 0.00008868 -0.00019492
57 1 9.103240 26.550570 14.918302 0.01045691 0.02827153 0.00267884 -0.00009047 0.00000285 0.00014461
58 1 26.879353 5.935264 20.700778 -0.00238684 -0.01954686 0.01136154 0.00009627 0.00013263 -0.00010843
59 1 16.211753 16.880852 20.701709 -0.03421028 -0.02475230 -0.00577855 -0.00007929 0.00000677 0.00005726
60 1 21.293431 1.106598 26.699557 -0.01016105 0.00361662 0.00374546 -0.00001586 -0.00126051 -0.00032414
61 1 27.908951 10.127964 13.339126 -0.00492178 -0.01472098 0.06220552 -1374701.67478899 29311958.65235772 5104657.31981726
62 1 28.379003 30.377036 23.895589 0.00414849 -0.01288244 -0.00766290 -0.00003351 -0.00000167 -0.00008166
63 1 7.897233 26.522454 5.858488 0.02327937 0.02681620 0.00465517 0.00296188 0.00768792 -0.01881604
64 1 0.237476 25.628820 24.206881 -0.00128149 -0.02422319 0.02810607 0.00010756 0.00006223 -0.00009996
65 1 32.953140 27.779607 8.612033 0.02489914 -0.05747508 -0.00702699 -0.00002531 0.00004815 0.00003199
66 1 7.245517 26.855111 23.905433 -0.01967966 -0.01151921 -0.05839739 6.05480950 578.42846304 -141.34948953
67 1 22.633573 30.273483 24.765161 -0.00514796 0.02941759 0.03029280 0.00009162 -0.00008744 -0.00001483
68 1 32.598550 29.434916 6.129110 -0.05607592 0.01721724 0.00562564 0.00008650 0.00012629 -0.00035266
69 1 16.335043 34.013218 3.237410 0.00083202 0.01585595 -0.02005898 -0.00001409 0.00004578 -0.00002171
70 1 6.683666 16.706152 8.547866 -0.06710029 -0.04580058 -0.04625300 -0.00011666 0.00002639 -0.00009178
71 1 21.876981 14.113816 3.645769 -0.01881481 0.00979282 -0.00589823 -0.00007604 0.00009958 0.00015434
72 1 14.147529 1.665704 10.429892 0.02517858 0.03255631 0.00176006 0.00001679 0.00012038 0.00002716
73 1 27.019232 8.593587 21.303594 0.00626536 -0.04227196 0.01342915 0.00026019 0.00003560 -0.00000369
74 1 18.824566 12.429786 22.603402 0.01342336 -0.01378345 0.06577591 0.00003001 0.00003466 0.00000852
75 1 27.587628 33.478523 33.593143 -0.03413574 0.01801688 0.03437332 -0.00018829 0.00001954 -0.00005839
76 1 11.511004 31.863879 30.247329 0.01562488 -0.01389853 0.02046854 -0.00011361 0.00002744 -0.00013490
77 1 27.899816 32.477850 5.881063 0.02220166 0.06163437 0.01004807 -0.00005505 -0.00014794 0.00005419
78 1 0.190599 3.086591 20.961256 0.00338117 -0.03161083 0.03556283 -0.00026470 -0.00037796 0.00017526
79 1 13.466706 23.206376 27.559269 -0.02444476 0.00053538 0.00467945 -0.00008127 -0.00002742 0.00014959
80 1 19.535490 2.305282 32.591584 -0.00711612 -0.01049101 -0.01248147 0.00001815 0.00000739 0.00015008
81 1 24.263947 7.529014 31.397429 0.01836881 -0.00229859 -0.03657542 -0.00103132 0.00030086 -0.00191171
82 1 17.826599 31.146552 22.538266 0.01876148 -0.00853441 -0.02187751 0.00004575 0.00021930 -0.00006037
83 1 12.934781 32.519626 20.990249 -0.00507252 0.02456151 -0.00057753 0.00006702 0.00000587 0.00013766
84 1 25.227135 13.290151 5.371687 -0.00001978 -0.00775208 -0.01341005 -24142.88609184 48066.60939896 -23666.13146865
85 1 17.709079 13.722773 31.108999 0.03313511 -0.04102373 0.00155793 -116.53185173 -496.68540029 1326.07209586
86 1 18.073194 32.464868 0.514916 -0.05036433 -0.01865780 0.03888898 0.00007862 0.00001419 0.00003894
87 1 12.507133 17.626737 12.214562 0.06306260 0.03258831 -0.02830705 0.00000219 0.00014578 -0.00014692
88 1 13.344235 2.084598 17.583563 0.01817248 -0.03285061 -0.06473414 -0.71570798 -65.84954978 38.85933948
89 1 22.622149 22.323968 7.095363 -0.03378882 0.03291100 -0.01012161 0.00061637 0.00019578 -0.00022319
90 1 0.893379 2.121651 8.720137 -0.04595928 0.00175268 0.01058487 -0.00011978 -0.00009325 -0.00002810
91 1 27.444817 22.650352 13.535483 -0.01184955 0.00834347 0.01412916 -0.00009786 -0.00002394 0.00007007
92 1 18.616118 19.724247 22.758803 -0.01451222 -0.07237643 0.00973044 -0.00006188 -0.00004853 -0.00013079
93 1 29.296569 28.532346 0.327830 -0.01700281 0.01121345 -0.01069620 0.00000037 0.00005197 0.00005628
94 1 32.293726 28.906065 19.977538 -0.01614721 -0.05237136 -0.07614521 112104.64095949 -110865.44482861 -108851.77342632
95 1 4.022624 28.462010 5.587446 0.03441039 0.00184124 -0.01034102 -0.00026154 0.00004844 0.00016656
96 1 16.960767 0.880014 15.928280 0.02105599 -0.03958627 -0.00293283 0.00123944 -0.00038547 -0.00048068
97 1 30.568432 13.000940 3.595212 -0.00406825 -0.00319419 -0.00488042 0.00015076 -0.00011793 -0.00013221
98 1 33.997329 5.500860 16.333898 0.01609689 -0.03217983 -0.01033217 0.05370452 0.07939998 0.08710565
99 1 12.052407 11.767237 11.761836 -0.02047307 -0.01558559 -0.00659027 0.00005817 0.00006565 0.00002185
100 1 18.617312 11.826696 34.349505 -0.01762779 0.03041364 -0.06277642 0.00046601 -0.00099099 0.00157548
101 1 26.014754 32.473742 25.158415 0.00799341 -0.05330964 -0.02390523 51.44334778 -3.92232157 -28.64615101
102 1 30.859650 23.777341 31.096542 -0.03092363 -0.04846693 -0.06195146 0.00005960 -0.00001754 -0.00009867
103 1 18.880720 3.129849 23.122092 -0.02122459 -0.02306149 0.01366563 0.78673390 5.25771045 -3.69761227
104 1 7.253536 3.778006 17.341521 0.02691075 0.00318054 -0.01537726 -0.00002355 -0.00009799 -0.00008794
105 1 21.663111 15.173253 2.758917 -0.02199629 0.03548666 -0.01688480 -0.00040101 0.00029467 -0.00029543
106 1 8.960010 2.098304 27.894873 0.00421374 -0.01151935 -0.00429347 -0.00009048 0.00002506 0.00006659
107 1 21.677765 30.156752 5.409794 0.03884131 -0.01758411 -0.00306283 -0.00011408 -0.00007385 -0.00000917
108 1 25.469624 10.736596 31.027047 -0.00158032 0.05514517 0.01449843 -0.00003368 0.00052342 -0.00037797
109 1 24.833773 14.073274 4.985978 0.00005144 0.03117864 -0.00114071 24145.15766697 -48069.31437256 23675.45665107
110 1 22.304195 8.722376 0.315946 0.04675190 -0.01753672 -0.00405858 -0.00125443 0.00022796 0.00021868
111 1 2.598644 14.603328 18.135622 -0.02112621 -0.02961073 0.00214467 0.00132601 -0.00067638 0.00100460
112 1 24.107555 8.316338 6.103581 -0.02125898 -0.03425710 0.03247589 3119.27361422 -5473.37024430 1531.82594972
113 1 2.374353 16.808055 2.415364 0.05407396 -0.03811402 0.02853523 0.00005734 -0.00012300 0.00004658
114 1 26.280252 33.493988 4.050734 -0.00495489 0.00258761 0.03185956 -0.00005020 -0.00023336 -0.00012233
115 1 12.858681 24.214879 16.969748 0.01085713 -0.00581845 0.02943774 0.00010287 0.00006539 0.00017815
116 1 31.676201 33.337185 5.017284 -0.01858394 -0.02354249 0.00077494 0.00004569 0.00005196 0.00022368
117 1 1.912641 4.008401 32.580786 0.02812584 0.00443187 0.00084624 825.90294401 6447.33318658 5503.41284444
118 1 2.579459 6.643903 32.781883 0.05528603 0.00674656 0.05822295 -0.01024505 -0.04038230 -0.00297369
119 1 4.175636 18.441244 15.002535 -0.02127174 -0.00085659 -0.04467658 0.00015725 0.00025097 -0.00002087
120 1 11.304526 9.942784 28.458030 -0.02108403 0.00164388 -0.04801689 -0.00004769 -0.00013701 -0.00003582
121 1 1.877609 22.216846 27.471201 -0.03050431 -0.00256553 -0.00881386 -0.00007968 -0.00003197 0.00002087
122 1 15.776443 31.166382 10.782005 -0.03884994 -0.00107082 -0.00012501 -0.00010651 0.00011959 -0.00007786
123 1 9.597489 15.985977 28.294300 0.03486093 0.00385786 0.00940149 0.00006013 0.00018901 0.00005237
124 1 3.619673 10.310034 17.146873 0.02277616 0.01689388 0.02048577 0.00058799 0.00040200 -0.00014700
125 1 25.276568 0.069890 32.055634 -0.03127861 0.03013216 -0.05284278 -59819.94096598 199915.02625304 -213891.73219611
126 1 17.192075 31.974815 16.732299 0.02297216 0.00258729 -0.02863008 0.00020182 -0.00003483 -0.00004085
127 1 33.463268 25.650858 21.010327 -0.00187875 0.00824014 -0.03381377 0.00071412 -0.00204820 0.00057452
128 1 27.919778 24.447251 14.892469 0.00300316 0.01814006 0.02598183 0.00008135 0.00018803 -0.00014213
129 1 6.230124 17.130228 0.707327 -0.01598935 0.00319391 -0.02607280 0.00001848 -0.00007301 0.00012793
130 1 13.433592 11.280400 15.874390 0.01521314 0.00285726 -0.03792345 0.00012006 -0.00012007 -0.00019739
131 1 23.141965 19.978367 23.686509 -0.01921458 -0.02882189 -0.03775574 -0.00005020 -0.00021678 -0.00021944
132 1 1.148871 31.895731 16.795371 0.03711013 -0.00337534 0.00467926 0.00019597 0.00001039 -0.00015696
133 1 25.528205 21.061431 11.154342 -0.01327666 0.03050535 -0.01065394 0.00024657 0.00001178 0.00004955
134 1 3.709366 8.649194 9.838488 -0.01769004 -0.04600868 0.02344803 0.00013732 -0.00001788 0.00015739
135 1 17.123971 22.735603 21.449045 0.01623870 -0.06308975 -0.01787395 -0.00007672 0.00005368 -0.00004643
136 1 28.327875 18.238048 10.107554 -0.00582938 -0.01059208 -0.01392212 -0.00011460 0.00016435 0.00003764
137 1 12.430924 15.793191 13.166278 0.01471120 0.01105919 0.05110875 0.00011831 0.00006107 -0.00006319
138 1 13.946075 17.819945 25.309585 -0.02539172 -0.02894686 0.01565972 0.00005944 0.00001443 -0.00007985
139 1 3.050075 10.399497 11.054897 0.01012952 -0.00741931 -0.02970272 0.00001371 -0.00005134 0.00003176
140 1 27.126132 33.516809 33.244019 0.05265911 0.00837792 -0.01033690 -0.22487093 0.11916175 -0.14446086
141 1 33.689154 6.898526 3.742095 0.00227558 0.00967031 -0.01079041 -1.01145114 0.86192900 0.39737651
142 1 27.709698 4.574262 31.668616 0.02407224 -0.01446004 0.00399434 54007.63156571 -4530.44118784 8410.75942987
143 1 25.622810 14.708954 17.525625 -0.01040911 0.03889727 0.01816762 -0.00007660 -0.00007806 0.00015205
144 1 21.453227 9.211385 32.126859 -0.02110428 -0.00374426 -0.01869949 -0.00016434 0.00012576 0.00007091
145 1 22.335368 8.414443 3.134558 -0.03744101 0.00232111 -0.01703950 -0.00165325 0.00000278 -0.00207427
146 1 12.236414 29.030283 21.497649 -0.02372242 -0.01742380 -0.00013103 0.00015332 0.00012482 -0.00008858
147 1 8.201674 11.005499 11.757889 0.02277271 -0.02281792 0.06705222 -0.00002942 -0.00010516 0.00001241
148 1 4.082125 18.811269 24.187736 -0.02348883 0.01793417 0.02920305 0.00060783 0.00046399 -0.00014895
149 1 14.725986 29.126728 6.891670 0.02559739 -0.00280748 -0.01449667 -0.00005429 0.00016494 0.00004020
150 1 2.432168 33.551152 34.374984 0.01933782 0.02756761 0.00150900 -0.00006156 -0.00033640 0.00011785
151 1 5.514745 12.233207 16.932208 0.01428395 -0.00885862 0.01446994 -97.41769771 146.80726718 34.18661309
152 1 16.642402 27.068679 11.663103 0.02025118 0.04577681 0.01586343 -0.00019232 0.00002935 0.00019427
153 1 7.042801 19.626672 9.745494 -0.04019250 -0.02072625 -0.01609002 -5411670.83628738 5551862.29928891 3415383.61060859
154 1 28.241890 22.137870 15.402413 0.01353694 -0.03856633 -0.01644472 0.00004566 -0.00001067 -0.00003896
155 1 31.316820 23.365508 29.128252 -0.00482479 0.03842866 -0.03475904 -0.00007724 -0.00014958 -0.00012281
156 1 24.079457 25.445172 13.206186 -0.03854078 -0.00718194 -0.02670416 0.00015996 0.00012985 0.00008463
157 1 19.789736 18.218128 6.443132 0.00309071 0.00658621 0.00781855 0.00012712 -0.00037082 -0.00032425
158 1 30.913174 30.728385 32.158289 -0.00810188 -0.01129926 0.05627889 0.00001342 -0.00006153 0.00002893
159 1 21.340540 15.241984 26.523536 0.00353934 0.00463738 -0.02123153 0.00010837 -0.00007212 -0.00008002
160 1 7.340706 22.851935 4.709200 0.00477844 0.00611200 -0.02875925 0.00003619 -0.00028720 0.00012027
161 1 3.271571 20.656545 24.203801 -0.00534660 0.02887423 -0.05448739 0.00010028 0.00017439 0.00020175
162 1 3.065563 14.430726 34.186473 0.02374031 -0.02196613 -0.04706584 0.00010250 0.00007105 0.00000308
163 1 16.071695 6.419255 10.093910 -0.03846675 0.02335467 -0.02174907 0.00008276 -0.00008985 0.00002306
164 1 16.431909 8.643994 13.057233 0.00865239 -0.02297826 -0.00708203 -50.26096752 -49.03354599 39.17903609
165 1 24.058186 21.950925 2.777166 -0.02046006 0.05624556 -0.01155965 -0.00060288 -0.00015653 0.00185164
166 1 32.249155 4.066535 26.926976 0.00606079 0.02404920 0.02355115 -0.00019750 0.00000011 -0.00030799
167 1 0.491667 20.331709 24.964564 -0.00834484 -0.03079163 0.01519623 -0.00005497 0.00079444 0.00002650
168 1 10.919721 20.462330 33.427635 0.02679803 0.03319881 -0.01355830 3341.38675628 -2580.61090092 -10831.44429478
169 1 25.653403 29.246222 22.129513 -0.00696292 -0.02416183 0.01263048 16.57939782 14.74736356 3.00124446
170 1 7.524470 23.034989 21.995594 0.00459238 -0.00749306 0.02911424 0.00015155 -0.00092499 -0.00049524
171 1 26.419812 31.900609 18.660037 0.00084223 -0.01401989 -0.01771245 0.00016523 0.00057422 -0.00090071
172 1 24.628372 7.347507 6.388248 -0.01236124 0.00497151 0.01064714 -2908.58253757 5410.59348972 -1589.77037813
173 1 8.385393 4.006777 16.355687 0.00689203 -0.00082590 0.03606722 3.05161976 0.53869513 1.49512394
174 1 23.555309 20.063826 3.575174 0.02072203 0.00619828 0.01663101 -0.00012881 -0.00020198 0.00019942
175 1 19.789697 16.540591 6.785661 0.00908779 0.01557561 -0.02849626 0.00007827 -0.00010034 -0.00014922
176 1 9.038838 29.055596 20.797110 0.03235290 -0.02320849 0.00908178 50.72548230 26.23417290 -12.31940164
177 1 14.883925 5.441268 11.650201 -0.03799124 -0.01066541 0.01953053 3837.43591835 -7098.06606091 863.19413999
178 1 14.041902 30.770560 0.623967 0.00817346 -0.02143838 0.00531221 0.00002653 0.00000099 0.00005002
179 1 29.671656 26.680043 17.129230 -0.00878053 0.01345262 -0.03540697 10.57915334 2.92998288 -43.20010454
180 1 27.109237 32.228364 31.650607 0.00552751 0.04611136 0.00215142 -0.00541419 0.00683835 0.00143671
181 1 16.477813 6.598982 16.826324 0.07192185 0.01850571 -0.05831125 -0.00028172 -0.00041575 0.00104674
182 1 17.866773 29.676439 15.779976 0.01515760 0.00515520 -0.04123520 -0.00000483 -0.00004250 0.00004792
183 1 17.696995 27.845955 29.975933 0.02612701 0.01513908 -0.01082145 0.00009332 -0.00013416 0.00022929
184 1 27.450807 0.277344 30.296985 0.01566476 0.03152278 -0.01859773 -0.01951059 -0.00262883 0.01557163
185 1 24.900991 12.385554 28.568025 0.01058174 -0.02497681 0.04106572 -0.00013703 0.00003241 -0.00006485
186 1 29.486748 17.316419 19.589467 0.00214614 0.02948913 -0.01357827 0.00017261 0.00002496 0.00004679
187 1 15.680155 33.121560 24.771579 0.01559305 -0.00366494 0.00671745 -0.00004582 -0.00017866 0.00005384
188 1 1.240900 19.388223 15.682460 0.03158029 0.04922429 -0.05237912 0.00078361 0.00177701 -0.00006798
189 1 15.691454 27.053002 11.873285 -0.00898914 0.06049283 0.00391552 0.00002704 0.00011564 0.00008916
190 1 22.710992 30.808267 5.354285 0.02450451 -0.00279375 -0.02244183 0.00015918 0.00012822 -0.00002383
191 1 27.784778 13.332122 19.565076 -0.01081929 -0.00465287 0.02724471 105.47738411 56.24554059 -78.46390217
192 1 8.642734 9.858299 23.607594 0.00112867 -0.02227172 0.02455436 0.66703299 -3.64263051 35.45363912
193 1 0.630853 4.905789 5.929111 0.03916863 0.03303899 -0.01738997 0.00069637 -0.00108462 0.00117554
194 1 27.737054 18.932303 9.734214 -0.00049631 -0.01879363 -0.02981175 0.00006384 -0.00007123 0.00015830
195 1 29.724107 9.681850 12.172489 -0.00179041 -0.01463481 0.00245758 -0.84146016 0.20687708 0.54103111
196 1 23.430237 14.224579 21.722500 -0.03758522 0.02338221 0.00178884 -0.00030352 0.00016304 0.00017092
197 1 27.876723 24.016740 15.469188 -0.05972069 -0.02460640 0.04350555 -0.00119848 -0.00178380 -0.00106090
198 1 30.180583 29.891690 15.872367 0.03583700 0.05540284 0.02758184 61.70894613 -6.28192820 10.30716276
199 1 1.247416 6.115741 8.234892 -0.03275942 0.01282309 0.01663575 0.00007984 -0.00020722 0.00032287
200 1 18.275529 3.070924 3.908062 -0.00862087 0.06256217 -0.01472637 0.00002049 0.00004248 -0.00006845
201 1 15.214260 0.533860 28.158218 -0.00313923 -0.00084480 -0.01934714 -1.83594966 8.69877317 -12.79656421
202 1 4.480069 25.698618 9.849613 -0.00764204 0.00535652 0.00712732 -0.00004926 0.00012266 -0.00005633
203 1 20.502058 3.158250 27.710395 0.00635988 -0.01984784 0.00123280 0.19346291 0.32535233 -0.01550927
204 1 2.913800 18.135680 0.951053 0.01965807 0.01738991 0.00001223 184.28181981 350.40479101 292.01558236
205 1 23.108167 16.102298 25.646986 0.06285999 -0.02161385 -0.01170040 -0.00002524 -0.00025072 -0.00004330
206 1 29.503748 24.695670 31.441492 -0.03965723 -0.03091113 0.01625777 0.00029217 0.00027848 -0.00013286
207 1 24.090009 28.510295 7.451125 -0.04687127 -0.04513613 0.02616767 0.00005549 -0.00012349 -0.00012427
208 1 11.506962 33.566254 6.046576 0.01586075 -0.00266133 0.00266206 -0.00009053 -0.00015331 0.00025058
209 1 10.361674 6.387344 31.169683 0.01568491 -0.02503072 -0.00151238 0.00011245 0.00004089 -0.00001541
210 1 21.455111 19.664482 11.996947 0.01468154 -0.02136816 0.04079283 10169.10841848 -6682.20068481 5087.87385606
211 1 4.846814 9.638873 12.423786 0.00729478 -0.02391128 0.03906271 0.00010529 -0.00013686 -0.00043072
212 1 7.886926 5.452687 11.358633 -0.03688906 0.03164826 -0.04869389 0.00006765 0.00009178 -0.00029085
213 1 32.960200 22.311220 24.247528 0.03485506 -0.00858411 -0.06729669 -0.00001488 -0.00004273 -0.00020978
214 1 17.747138 14.664578 4.598279 -0.01440804 0.04754421 0.01665601 -0.00003637 -0.00001216 -0.00015017
215 1 30.544184 12.907920 22.654035 0.02113062 0.03458932 0.07723643 0.00074449 -0.00002690 0.00087859
216 1 23.559746 3.238137 4.855868 -0.02063829 -0.01906732 0.01398680 -0.00074753 -0.00036395 0.00015649
217 1 3.443655 28.028757 1.424914 0.06936216 0.03443934 -0.01077082 -0.00029131 0.00005031 -0.00023231
218 1 11.922344 21.666651 23.148172 0.01939086 0.04247908 -0.00200909 0.00017694 -0.00005976 0.00008255
219 1 23.088241 13.197779 10.937338 -0.04984816 0.04562699 0.00268709 -0.00011658 0.00000220 0.00011575
220 1 2.681331 19.336727 5.909209 -0.01262326 0.05102967 -0.02577161 -0.00017180 0.00005871 0.00025680
221 1 31.903506 2.346379 24.422197 -0.05319826 -0.03543818 -0.01226541 0.00011349 -0.00011240 0.00006738
222 1 21.697159 8.796006 13.614556 0.01198866 -0.00350634 0.00107960 0.00041295 0.00012082 -0.00113958
223 1 8.045691 24.896249 17.180789 -0.01983729 0.05865440 -0.00885713 -0.00007056 -0.00014318 -0.00006313
224 1 29.274201 23.090935 6.940774 -0.01773704 -0.02713727 0.02514941 0.00006523 0.00008132 -0.00019194
225 1 32.310287 14.013011 16.212179 0.04518920 -0.03821425 -0.01582512 0.05510586 0.05860895 -0.00791138
226 1 9.946728 30.602235 27.518057 -0.01392747 -0.04917480 -0.02269446 -0.00000176 0.00000553 0.00001972
227 1 28.861575 23.297754 29.755745 0.00010615 0.05084709 0.02270100 0.00044996 -0.00004287 -0.00022363
228 1 4.419064 29.876797 6.216103 -0.03212573 0.03053075 0.00917949 -0.00018532 0.00000215 0.00019555
229 1 25.182571 30.914990 10.789545 -0.02799192 -0.02049332 0.01087310 -0.00002018 -0.00014293 0.00002384
230 1 8.161991 4.356504 14.215275 -0.02637227 -0.00628953 -0.05552699 0.12101676 -0.18948914 1.15959205
231 1 30.892412 23.325193 11.919416 -0.01247707 -0.00350829 -0.01464651 0.00012597 -0.00008782 0.00004884
232 1 15.849768 21.972814 11.749204 0.01465108 -0.01054994 0.02276926 -0.00140668 0.00013298 0.00095331
233 1 13.723285 5.823110 6.962852 0.00020790 0.00664070 0.01466900 0.00001433 0.00019085 -0.00034097
234 1 31.881737 3.344577 3.251932 0.01938141 0.03421014 -0.01086021 0.00064288 -0.00163344 -0.00059580
235 1 2.007090 8.625405 24.487399 -0.01380855 0.02805294 -0.04693879 -0.00002439 0.00016238 0.00013124
236 1 10.987963 26.786469 14.897851 0.05106048 -0.01820807 0.01989012 0.00013274 0.00002779 -0.00002097
237 1 13.860479 3.114535 24.557764 0.02698741 -0.00762348 0.02722977 -0.00048815 0.00034555 -0.00034833
238 1 21.302774 4.261475 3.140715 -0.00682392 -0.02498612 0.01965403 -531.45512535 -19.00878653 -358.51594009
239 1 8.018033 12.975820 8.056717 -0.01798235 0.03340282 0.05328946 0.00008696 -0.00008412 -0.00001068
240 1 18.285651 1.621014 30.313748 0.02069691 0.03181084 0.03256597 -143.24607318 303.17795842 -14.44853629
241 1 9.145220 17.105333 10.127029 0.01502258 -0.01795233 0.00157988 24663.97630501 -18363.10305289 11546.66489801
242 1 28.710401 4.450404 33.581661 0.01822679 0.03692000 0.01320901 -0.61024849 0.07454187 -1.16963125
243 1 30.322891 9.220637 6.919242 -0.01753823 0.01193411 0.01258189 0.00005343 0.00014885 0.00027442
244 1 13.888465 34.045830 16.693709 0.05029808 -0.02883166 0.00402844 -0.01140857 0.05215288 0.01884925
245 1 21.018289 19.819086 16.140294 0.03416145 -0.01240840 -0.02324087 -0.00008362 -0.00002616 0.00129668
246 1 1.619674 6.198275 24.160340 0.03055378 0.03771630 0.00184226 -2251.64959985 1726.67694797 -580.86158259
247 1 15.605523 28.502623 25.422880 -0.01375875 0.01784923 0.01520698 -3.94380717 2.23148086 -2.68511565
248 1 2.028682 16.664368 7.896829 -0.02080926 -0.01729083 -0.02695606 -0.00009723 -0.00025498 -0.00009458
249 1 26.270556 17.487162 19.080442 -0.02879213 -0.01409279 0.04056313 -0.00018552 0.00074034 -0.00010592
250 1 15.041802 15.149199 7.938467 0.01002396 -0.00468999 0.00374129 -0.00008285 -0.00006316 0.00001495
251 1 11.023555 10.731401 17.033100 0.00078970 0.02599739 -0.02141690 0.00130289 -0.00119815 -0.00061866
252 1 12.029574 14.008473 19.733795 -0.00478569 -0.00502732 0.00642119 0.00181120 0.00066878 0.00088679
253 1 11.100193 5.720828 30.246649 0.03479476 0.00221346 0.04274639 -565689.64284915 2444670.85034141 -564187.26608984
254 1 6.830540 20.857012 28.306586 -0.05341084 -0.02009541 0.03044394 -0.00008903 0.00023490 -0.00001764
255 1 2.887628 31.990493 16.949354 0.05685685 0.01450494 -0.05288959 -0.00009241 -0.00012378 0.00001507
256 1 28.358095 6.409842 33.090141 -0.01790130 -0.02353366 -0.00075215 -0.11493720 -0.20398303 -0.14409075
257 1 18.000962 19.529026 6.537980 -0.00144766 0.01550985 0.00304683 -0.00031437 -0.00116420 -0.00188875
258 1 16.951211 4.376133 1.536155 -0.00053613 -0.00389488 0.00296592 -0.00064573 0.00002112 -0.00011850
259 1 25.803436 0.869169 32.932764 0.01503613 0.02299967 0.03438515 -453.06633920 -687.31922087 -754.26363529
260 1 2.320457 26.855140 3.747647 0.03171125 0.03620816 -0.04421139 -0.00020790 -0.00008481 0.00005922
261 1 0.354212 4.161324 30.485664 0.02751090 0.02463554 -0.04746969 0.04957648 -0.00489645 0.06684277
262 1 9.122545 26.957369 22.806320 0.02975829 0.04671659 0.00628628 -193.19723820 -110.05220001 -532.94309360
263 1 20.033592 9.239437 28.753424 0.04194270 0.05264391 0.04290487 -0.00030228 0.00046978 0.00015244
264 1 26.364770 12.691281 10.471607 0.00418600 0.01995049 0.00239967 -0.00030239 0.00077081 -0.00055138
265 1 32.443489 1.158122 5.360742 0.02517786 -0.01083790 -0.04728921 0.00023486 -0.00023099 0.00002021
266 1 29.430619 25.441569 1.052736 0.02112134 -0.04055433 0.02498223 0.00009529 0.00012025 0.00024894
267 1 6.288803 18.365040 8.894422 0.00764274 0.02164551 0.02597599 14.79351671 24.75737504 16.69933933
268 1 21.436826 22.283589 18.701061 0.03290035 0.04035799 0.03656014 -0.00004705 -0.00008570 0.00011706
269 1 21.728548 14.912791 12.453280 0.03095736 -0.01221401 0.04611751 2154.52045962 -117.54993328 -968.70379446
270 1 13.432123 2.033227 32.124303 0.00795366 0.00920400 -0.01155571 -0.00044185 -0.00008180 0.00071154
271 1 3.051934 18.927064 2.556840 -0.00614417 0.00959545 0.01474366 -1.23169761 -7.05649424 -14.31820408
272 1 11.605635 23.016195 2.897389 -0.00568458 -0.01444340 0.04318037 425.92126066 399.52455599 -8.45199072
273 1 21.031109 24.995899 11.742749 -0.00128153 -0.02481792 -0.03010011 0.00017166 0.00073692 0.00015875
274 1 3.901084 27.322520 12.002408 -0.04580221 0.00548261 0.01162487 -5.58652391 -6.07943624 22.93200885
275 1 27.894940 31.031667 20.952162 0.03807782 -0.03683892 0.01149802 -0.00136489 -0.00057359 0.00021931
276 1 1.379865 16.588560 20.165530 0.00065223 -0.01261218 -0.03048232 0.00034262 0.00021217 0.00013688
277 1 10.813900 3.729234 32.514625 0.00023949 -0.00058537 -0.01095585 0.00036372 0.00234437 -0.00266928
278 1 17.727160 13.784473 32.404726 0.02306688 0.03869227 0.04102362 -15.72786834 -53.66927895 -1127.08519977
279 1 29.130306 14.515409 29.305639 0.00388522 -0.02539385 -0.00859674 347.23904922 209.29418240 1797.77843009
280 1 0.600860 2.703660 28.309411 -0.05260692 -0.02802344 0.02240804 -0.00022664 -0.00033201 -0.00048309
281 1 24.057549 16.623823 6.388857 0.01749063 0.02234513 -0.04026732 -0.00071073 0.00222912 0.00059237
282 1 16.038291 26.480831 20.907302 0.06392903 0.02455131 -0.01225576 0.00019717 -0.00006832 -0.00018334
283 1 21.921294 20.482556 25.848939 0.00745395 0.01912116 0.03097914 0.00582016 0.00357012 0.01146883
284 1 2.267490 9.228743 34.113243 -0.02015776 -0.02128714 0.00709479 0.00021140 0.00052054 -0.00002060