ITEM: TIMESTEP
0
ITEM: NUMBER OF ATOMS
2402
ITEM: BOX BOUNDS pp pp pp
0.0 33.181630
0.0 33.181630
0.0 33.181630
ITEM: ATOMS id type x y z vx vy vz fx fy fz
1 1 26.470249 18.758727 0.754846 0.04419128 -0.01791134 0.03237128 -0.00002166 0.00009712 -0.00000799
2 1 8.241223 4.426610 12.370187 0.00592250 0.03495535 0.03990020 -348.09027227 232.93314287 864.81459776
3 1 14.726743 24.117739 12.647354 0.01250525 -0.02350834 0.02154050 -0.00007923 0.00011934 -0.00012041
4 1 21.430781 31.794575 1.609086 -0.07140888 0.02868680 0.02202329 -0.00000540 0.00004934 -0.00025444
5 1 32.323311 20.282258 21.706838 0.02690367 0.00084643 0.01665413 0.00014829 0.00024523 -0.00016933
6 1 9.713961 19.799599 21.047983 0.04439182 -0.01617509 -0.00826795 -0.00007157 -0.00002248 -0.00005420
7 1 5.891265 7.519633 14.064082 0.00340560 -0.00492144 0.04392060 -1.77503824 -23.77063024 2.28400962
8 1 31.677814 29.149346 31.277928 -0.01504314 0.03441614 0.03308488 -0.00001079 0.00005017 -0.00008532
9 1 26.765511 30.902522 17.453239 -0.01166970 -0.01270219 0.00573885 0.00007132 -0.00001818 -0.00011714
10 1 27.012291 9.602212 2.890167 -0.05309399 -0.01637796 0.03327434 0.00007742 0.00002013 -0.00006590
11 1 6.442212 9.879446 17.820161 -0.06979248 -0.03751664 0.01707753 512.02976004 3704.03310518 -3193.77438568
12 1 12.803138 16.521946 29.312169 0.03606224 0.00527658 0.01242623 400636.73642779 -95357.20266808 173928.88956604
13 1 29.553880 12.943514 20.907723 -0.05505981 -0.00596360 0.02754595 0.00001107 -0.00012173 -0.00001572
14 1 2.419605 29.504600 7.879951 0.04109927 -0.02505691 0.01313396 -120619.52671696 264486.34884846 496769.39192802
15 1 24.038190 16.049889 0.664696 -0.02051869 0.01821872 0.00329394 2480.29111336 3270.59914085 4378.47813049
16 1 22.559800 3.886231 33.135968 0.03838063 -0.01359570 0.04791477 -4.93723216 0.30539126 -1.84934583
17 1 10.787262 16.064672 21.572767 -0.04149988 -0.00637443 0.03229834 0.00006698 -0.00007579 -0.00010471
18 1 0.908372 14.225617 1.936014 -0.02856578 0.01641676 -0.00545058 -0.00003130 -0.00008237 0.00015238
19 1 24.600094 6.147314 19.316335 -0.04688210 -0.02467780 -0.00671668 -0.00007920 -0.00002681 0.00001218
20 1 12.189062 19.387536 28.997101 0.01977966 -0.00899593 -0.01358383 0.00183320 -0.00807790 0.00097946
21 1 2.450907 17.303806 11.388365 0.00128634 -0.01696088 0.06813952 0.00007780 0.00008653 0.00013767
22 1 5.458619 13.710632 31.817680 0.04404626 0.01743507 -0.02827132 -0.00011435 -0.00005190 -0.00002350
23 1 17.492741 2.992792 0.294567 0.01856490 -0.02496995 -0.01042202 -0.00029137 -0.00016250 0.00012287
24 1 23.966839 7.000542 20.446052 -0.00204608 -0.01502737 -0.00737554 -0.00005203 0.00010837 -0.00005244
25 1 4.058891 12.492634 22.165909 -0.00241409 0.02633878 -0.02269852 -0.00000574 0.00000594 0.00003392
26 1 3.919050 31.947786 17.694763 0.00371957 -0.04049702 0.02325679 -0.00013674 -0.00000505 -0.00000100
27 1 14.499364 15.238450 7.132524 0.06117274 0.03417656 0.04729439 -0.00009240 -0.00013490 -0.00004430
28 1 8.492486 3.286664 3.563577 -0.03774452 -0.01874261 0.04052904 -9786932.04927434 11664517.32138075 9504488.14040715
29 1 30.642334 14.310315 26.234761 0.05238600 0.05291952 0.04299906 -0.00014169 -0.00019578 0.00011834
30 1 1.984753 5.432567 16.397409 -0.00272745 -0.05335680 -0.01666498 58.49346386 7.86753520 -84.90775713
31 1 11.370068 10.801477 0.228781 0.01406667 -0.04244806 -0.01563220 0.00003546 -0.00007246 0.00000379
32 1 30.186638 23.129785 0.559794 0.03849904 0.05724704 -0.01665836 -0.00018474 0.00007933 -0.00003739
33 1 4.908224 24.270509 0.684835 -0.02436008 -0.03299102 -0.06325067 -0.00000290 -0.00003427 -0.00003466
34 1 16.679285 13.190156 27.729976 0.01464473 -0.03945995 0.02687462 0.00026635 -0.00018229 -0.00028760
35 1 30.321050 28.000806 16.028581 0.05033311 0.01833879 0.00571786 0.00003688 -0.00009983 0.00009147
36 1 25.369372 32.233242 13.926935 0.01167625 -0.00974290 -0.01461864 -0.00011535 0.00016434 -0.00004295
37 1 27.975277 11.084119 3.041446 0.00238642 0.01615478 0.01848795 1175.14820442 1169.73961586 1762.10052607
38 1 2.915577 19.654441 25.758938 0.00220407 -0.02606597 -0.02652426 -3899.78710788 -6390.28441213 3164.70907744
39 1 30.807858 33.043631 4.014614 -0.02501167 -0.02354024 -0.00482026 -14.54949478 -20.70880732 0.90789374
40 1 0.800257 26.686617 16.849937 -0.01224523 0.01076192 -0.00617321 -217873.55199936 -88147.74383967 -203942.32772836
41 1 1.328497 8.005684 13.015014 0.02061639 -0.05919446 0.00820286 -0.00086625 0.00065236 -0.00105838
42 1 12.435409 2.417412 15.460053 -0.03165059 -0.01278194 -0.02503077 0.00003087 -0.00005505 -0.00001912
43 1 12.923635 16.460150 9.581551 -0.02347147 0.00965625 -0.00386898 -2635461.84686330 -10509069.37423750 2684922.55425064
44 1 5.793050 28.117440 33.171201 -0.04994181 0.02341352 -0.01871694 0.00011291 -0.00000371 -0.00000529
45 1 13.366606 27.167360 19.608674 -0.02069862 -0.01195521 -0.00964144 -0.00013411 0.00000063 0.00003012
46 1 5.857546 4.558683 28.426209 0.02072542 -0.02449217 -0.02150848 0.00001516 -0.00010549 0.00003831
47 1 17.657486 22.531260 17.237550 -0.01773622 0.03835709 0.01462550 0.00005931 -0.00008709 0.00001871
48 1 4.838911 16.425671 11.356746 0.00005035 0.03722971 -0.05060673 -0.00001376 0.00001408 0.00004044
49 1 13.512175 23.781424 0.686776 0.06375951 0.05381522 -0.00839937 0.00016823 0.00000414 0.00007979
50 1 5.739718 14.993377 32.956841 -0.03339851 -0.03085453 0.02513436 -1018.55784970 523.43055557 -689.32269009
51 1 20.478087 32.438850 22.758491 -0.00757571 -0.01814606 0.03658327 -0.00001241 -0.00016143 0.00009438
52 1 5.074950 9.304151 12.196315 0.01601414 0.04844794 0.05304621 0.01394608 -0.03083742 0.03191286
53 1 9.981529 12.079117 24.227960 -0.05895979 -0.02494302 0.04230303 10.04619760 117.06532841 161.77357253
54 1 9.350712 30.893131 9.039159 0.01187214 -0.00229448 -0.01616302 0.00010631 0.00005497 0.00001898
55 1 23.785992 0.227456 27.320585 -0.01480973 -0.02129651 0.01190822 0.00015653 -0.00004787 -0.00007894
56 1 32.331657 29.897803 7.609689 -0.01590008 -0.01727832 -0.02940990 -113.53367190 -79.90622091 -366.82545413
57 1 4.792944 14.431276 19.617065 -0.00480557 0.01279314 -0.04683814 -9974.65380289 -180063.54618246 -35029.03214642
58 1 5.431784 13.957043 9.039291 0.01437261 -0.05268619 0.06896013 0.00001874 -0.00005465 0.00009005
59 1 9.166538 31.055826 0.542931 0.01147773 -0.04887093 -0.05741442 0.00007333 -0.00013273 -0.00012698
60 1 16.137479 6.716711 4.701905 0.00173477 -0.02686822 0.01103466 -0.00012087 0.00000400 0.00001168
61 1 28.394809 16.306573 10.343366 0.07987302 0.02706832 0.06939544 0.00006343 0.00016982 0.00010212
62 1 13.643730 16.078353 4.395106 0.05426836 -0.06707160 0.01436818 0.00006003 -0.00006675 -0.00026755
63 1 4.417392 22.284158 21.325146 -0.01294386 -0.00037287 0.02072167 161.05894994 458.07837007 120.64088692
64 1 12.642637 19.895449 14.227754 0.02834984 0.03621140 0.03077393 0.00005163 0.00007946 -0.00000598
65 1 12.443366 31.142660 24.120572 0.02149437 -0.07124306 -0.00129350 0.00036445 -0.00004397 0.00012365
66 1 5.609281 33.165923 11.843085 -0.00906223 0.02063491 0.00484051 -0.00008277 -0.00022455 -0.00006947
67 1 6.196805 27.219180 3.141231 0.03853055 -0.03527358 0.01523665 0.00012147 -0.00005865 -0.00018723
68 1 31.673135 19.378982 4.010916 -0.00287412 -0.03685239 -0.04208723 -0.00005320 0.00003601 0.00002066
69 1 12.194345 20.424050 18.735389 -0.02239913 -0.04316088 -0.01674442 -41.26443367 -109.57600881 -91.09672360
70 1 1.472674 17.471412 8.823660 0.01735494 -0.02932096 -0.02223593 0.00005556 0.00013881 0.00003934
71 1 17.170963 30.727462 17.524372 0.01566305 0.01119089 0.02276667 -0.00001091 -0.00001338 -0.00000192
72 1 29.590485 5.401414 4.137367 -0.00082121 -0.00035582 -0.00722793 0.00006307 -0.00000239 0.00010556
73 1 20.640247 0.700723 19.055339 -0.01486636 -0.00256786 0.01211131 -0.00016064 0.00020110 0.00010509
74 1 2.751287 20.407577 16.442964 0.03242746 -0.03332898 0.05491925 -12.68129123 -3.35102019 -5.86494010
75 1 4.839749 8.624686 8.912746 0.00464024 -0.02190976 0.00668414 -0.00016545 -0.00000723 -0.00029864
76 1 6.695316 28.340491 4.492068 0.06477833 -0.02903198 -0.00478006 0.00002355 -0.00010605 -0.00009954
77 1 19.018983 25.877013 8.066108 -0.02952329 -0.02284675 0.02450385 0.00013061 0.00007557 -0.00012724
78 1 19.312580 20.680022 22.054520 -0.02138338 -0.02874833 0.01423230 0.00007959 0.00007733 0.00028971
79 1 8.578402 28.425512 27.299962 0.01605966 -0.02651073 0.02242976 0.00005875 -0.00001227 -0.00007412
80 1 15.756641 32.372900 24.552865 0.06991779 -0.01227465 -0.00890771 0.00009002 -0.00008021 -0.00014581
81 1 23.143721 8.970039 20.245700 0.00168373 0.00580918 0.03439308 0.00004358 0.00011854 0.00007175
82 1 32.823263 33.010933 23.414109 -0.04625491 -0.00477039 -0.01171039 -0.00014623 -0.00022514 0.00010836
83 1 15.001116 28.056517 14.367833 -0.00571531 -0.04938206 -0.02503483 0.00014342 -0.00000466 0.00000897
84 1 31.189693 6.480906 29.265959 -0.00539317 0.01298997 0.00303285 0.00010584 -0.00016190 0.00015583
85 1 18.291861 10.536811 13.065872 0.06200241 0.03218800 0.02733613 -0.00011197 0.00005313 -0.00009930
86 1 9.688402 3.547744 23.444258 0.01700744 -0.01757980 0.04123895 -0.00015411 0.00004925 0.00005233
87 1 25.918681 10.541935 31.413548 0.00305009 0.00177398 0.04052943 -0.00009155 -0.00005313 -0.00022252
88 1 9.562658 27.599065 4.414427 -0.02925758 0.00723259 -0.02574247 112148.97108205 40229.47830250 64609.83137819
89 1 7.002361 17.385337 0.412430 0.02473425 -0.00822567 0.00820457 -0.01345270 -0.02555356 -0.00679028
90 1 20.517598 7.137425 13.319227 0.12347781 -0.00918783 0.01679379 0.00001423 -0.00006037 -0.00004257
91 1 5.557863 7.046676 32.334242 -0.01155611 0.03246432 0.00882670 996.12706716 -3506.05614910 49.95922350
92 1 32.900737 19.763971 4.992509 -0.03106348 0.05434327 0.01541635 -0.00002225 0.00004779 -0.00004240
93 1 16.692845 16.618469 0.570104 0.00904252 0.06864314 -0.02808877 -3132.59968902 6941.54378194 -10033.87045580
94 1 31.802290 22.432573 28.784300 -0.02216536 -0.01826910 0.03258400 0.00005501 -0.00001032 0.00001839
95 1 6.091378 13.820010 3.613029 0.03912362 -0.00678545 -0.02588379 0.00015254 -0.00052121 0.00146798
96 1 25.808528 26.610536 20.267445 -0.00069956 -0.03682433 0.01640058 0.00003253 0.00009744 -0.00024005
97 1 18.065516 20.452687 18.941781 0.03489440 0.03568711 0.07125703 0.00027812 -0.00008356 0.00000214
98 1 11.789986 27.023382 1.908943 -0.04568209 0.01774686 0.00932031 0.00179876 -0.00047577 -0.00205681
99 1 31.221905 28.201642 30.588735 0.00881111 0.01518621 -0.01088151 -0.00014324 -0.00000356 -0.00001691
100 1 13.541391 11.328511 31.964818 -0.04244803 0.00949333 0.02808460 -0.00004542 -0.00010011 0.00002012
101 1 16.373552 11.712884 32.789331 -0.02694221 0.03944821 -0.00460289 -0.00006120 -0.00043215 0.00004642
102 1 14.415416 30.185519 14.309952 -0.01379664 0.05213407 -0.01365974 0.00009705 0.00014936 0.00004698
103 1 5.850656 4.916411 26.316335 -0.00679305 -0.03842647 0.03675848 0.00000418 -0.00007500 0.00005400
104 1 9.371934 5.071466 24.401772 0.05266522 0.02902697 0.03619746 -0.00022344 0.00003964 0.00005534
105 1 15.191344 27.020746 24.537948 0.01305408 0.00544750 0.02311715 6.65524303 2.12629013 -1.26268395
106 1 32.495047 16.113007 10.977961 0.05203632 0.00131844 -0.01780121 0.00015642 0.00004863 0.00006918
107 1 2.398996 3.251013 14.308040 -0.00435403 -0.03113205 0.03519047 18513.20486630 -49357.12642435 2066.77378371
108 1 19.885790 3.507026 22.939563 -0.05732498 0.01742501 0.02770062 -0.00001001 -0.00013876 0.00003006
109 1 19.937105 24.830607 21.443338 0.03333943 0.00688698 0.03560435 -0.10004074 -4.13693348 -14.04135088
110 1 15.831514 0.394161 20.008263 0.00844818 0.05389838 -0.05117857 0.00011122 0.00002268 0.00018257
111 1 8.909850 11.150141 32.811711 0.02433705 -0.05601490 -0.00812817 13.46658445 -39.49184069 37.86380325
112 1 5.069445 17.693557 5.971884 -0.00048159 0.00402110 0.05546054 0.00009039 0.00002886 -0.00000110
113 1 29.285039 27.762357 13.298009 0.00914303 0.00341251 -0.01582693 16795.90964868 -312.14752945 16002.64991909
114 1 17.201734 4.722492 4.978800 0.03708520 0.04146608 -0.01447257 0.00005847 0.00016020 0.00011617
115 1 7.343362 20.700704 28.386613 -0.04873412 -0.04337192 0.00741333 0.00024753 0.00003197 0.00004578
116 1 11.239210 28.832067 16.107388 -0.02439954 0.04086361 -0.01720748 -0.00000382 -0.00000187 -0.00001337
117 1 11.787509 7.121885 11.285420 -0.00056442 -0.01889461 0.00442623 0.00040771 0.00040545 -0.00025374
118 1 16.800383 5.069625 25.938263 0.01683303 0.02559297 0.00319361 4.03235480 2.41779369 -0.04043797
119 1 29.226076 26.031669 10.337956 0.00242588 -0.05206205 -0.01766792 -0.00029189 -0.00134228 -0.00204490
120 1 4.389730 28.356035 10.213405 0.01898988 -0.02486182 0.06072359 0.00117332 -0.00054482 0.00114745
121 1 1.289940 10.940391 8.045101 -0.02538983 -0.03314258 0.02959216 4451.11628849 1557.89755624 -3627.83739581
122 1 31.926593 23.880292 5.442338 0.00422094 0.04362170 -0.02648153 -0.00021655 -0.00015886 -0.00010887
123 1 0.415113 15.643319 9.174280 -0.03616691 0.04397165 0.00092027 -12196770.56284157 -10437098.45813334 -3210442.51035873
124 1 12.439569 26.638688 12.344027 -0.02782115 0.01517982 -0.03063376 -0.00001898 0.00002417 -0.00017929
125 1 4.336569 5.995724 20.668036 0.04111336 0.05465981 -0.05541599 0.00011163 -0.00031110 0.00053960
126 1 24.628051 12.970642 29.166030 0.02013931 0.01416709 -0.06149065 -0.00017758 -0.00004560 -0.00024953
127 1 10.864416 5.640980 12.305927 0.02820580 -0.00825271 0.03462407 -0.01205004 -0.00554381 0.00038923
128 1 29.026767 16.758934 8.601747 -0.06059885 -0.01301058 -0.00693169 593.45110620 -6023.54844316 2055.87494287
129 1 2.932693 5.586747 18.585966 -0.11232212 0.01303070 -0.01779701 -0.12894670 -0.02077634 -0.29688664
130 1 10.493644 19.102284 9.492107 0.00762026 0.02333298 -0.03944489 366774.63061354 -237223.60881804 645085.38276561
131 1 27.672235 4.333390 20.957830 -0.01958092 -0.02625257 0.00919519 -0.00002596 0.00011482 0.00009559
132 1 29.787481 32.859042 25.844734 0.01757157 0.00920406 -0.00512209 1604.38290000 -2620.40410495 -3161.42873312
133 1 13.173150 28.616520 0.648315 -0.00534135 -0.03338680 -0.02269924 0.00025288 0.00002535 -0.00031889
134 1 32.346530 29.560303 15.133183 -0.00458706 -0.01801287 -0.00352155 0.00043222 0.00235293 -0.00015851
135 1 23.765356 30.081285 14.721194 -0.03991958 0.06033669 -0.07626761 -0.00015354 0.00012761 0.00000373
136 1 25.721511 4.064727 32.831240 0.01589853 -0.04438350 0.01675745 0.00076826 0.00004178 -0.00021562
137 1 3.652248 31.435228 28.322394 -0.03698327 0.02189674 -0.04628858 -0.00007235 0.00034148 -0.00010885
138 1 7.430644 12.902243 0.625698 0.06587166 0.00608045 0.01321689 0.08584459 -0.10114276 -0.07343497
139 1 11.930949 13.481326 8.093974 0.02170610 0.01890008 -0.01477286 -0.00080027 -0.00221762 -0.00111771
140 1 20.893875 21.070368 12.673558 0.02072470 -0.02180029 -0.06083506 -0.00005318 -0.00002973 0.00005570
141 1 10.088788 22.412026 32.418053 -0.12399910 0.00255024 0.02344397 0.00012768 -0.00000426 -0.00004334
142 1 15.958681 2.243588 32.793242 0.03179316 0.05523923 -0.02279197 -0.00008159 -0.00011706 0.00004870
143 1 0.880486 29.728121 10.376813 -0.04203100 -0.00065952 -0.02148429 0.00577227 -0.00066659 -0.00595689
144 1 29.512413 28.077733 17.450500 -0.00335604 -0.02339549 -0.01035510 -0.00052406 0.00016331 0.00140785
145 1 9.400688 3.169095 10.013311 0.02689960 -0.02369348 -0.02076266 -0.00445750 0.00494825 0.00912946
146 1 4.103689 32.037396 22.492667 0.05811985 -0.03702044 0.06930392 0.00005065 0.00002553 -0.00008547
147 1 1.358657 27.758767 0.851990 -0.01741814 0.00466759 0.02031653 0.00010391 0.00001818 -0.00014412
148 1 27.301491 32.235165 24.910348 0.05533454 -0.02852385 0.02160532 0.03760206 0.00936394 0.01416631
149 1 28.408893 29.824812 2.228037 0.07195301 -0.03458141 -0.00626396 -0.00065959 -0.00074447 -0.00056048
150 1 21.532443 15.703163 2.511061 0.02673275 0.00878285 -0.03373300 0.00048373 0.00015994 -0.00014253
151 1 31.672762 29.422581 14.866217 0.01529428 -0.01490687 -0.03005272 0.00050985 0.00186676 0.00043009
152 1 31.886652 3.964768 12.366940 0.05151069 0.03759591 0.02303991 -0.00128035 0.00002168 -0.00088544
153 1 17.641778 32.138771 26.732143 0.00275586 0.04641841 -0.00356015 0.00007872 0.00001578 0.00026055
154 1 33.158049 3.415124 2.756810 -0.00380362 0.02387033 -0.01733673 0.00045538 0.00073165 -0.00032137
155 1 19.476003 7.159592 24.816527 -0.00483501 -0.04604490 -0.05480513 -146823.52937936 50409.52167751 -186590.42866771
156 1 22.998511 27.235322 28.537161 -0.00316075 -0.02535587 0.05731002 -0.00004056 -0.00004659 -0.00001827
157 1 24.594279 11.560714 15.441870 0.04801200 -0.02201137 -0.01501565 0.00000136 -0.00014753 -0.00000428
158 1 23.519172 32.862956 31.166741 -0.01820743 -0.03865639 0.02044054 0.00004610 -0.00045891 -0.00018279
159 1 6.864299 11.902537 14.434971 0.08400766 0.06762685 0.02105438 0.00029845 0.00161550 -0.00138842
160 1 22.324085 25.458962 5.351615 -0.02143887 0.03420559 -0.02883071 0.00003923 0.00012002 0.00005815
161 1 2.885855 30.886198 31.142775 0.00300988 -0.02035964 -0.03326926 4053.00023081 2854.59840167 14009.35323109
162 1 17.671819 20.583915 25.320673 -0.02353948 -0.00891858 -0.01231277 0.00000149 -0.00011306 0.00011586
163 1 0.210532 26.447997 16.297881 -0.06259530 0.00950692 0.03267339 217854.00091395 88149.96930035 203938.42889758
164 1 29.714875 0.281998 32.561748 -0.00728266 -0.01078171 -0.02648951 -0.00041197 0.00006220 -0.00050643
165 1 23.053958 0.230854 14.707867 -0.02723524 -0.00878708 0.00157992 0.00006595 -0.00021502 -0.00001724
166 1 2.641851 9.984332 29.288423 -0.05550216 0.04220802 -0.01012264 -0.00024797 0.00035156 -0.00006227
167 1 28.488420 18.587494 29.729117 -0.03671901 0.01745630 0.00177115 0.00004708 0.00008542 0.00002281
168 1 0.272442 18.986883 4.842969 -0.02062523 0.04235190 -0.05019407 0.00006369 0.00009380 -0.00012516
169 1 3.376633 18.154416 10.291180 -0.04524755 0.01213711 0.01048280 -74943.54046575 -101502.42878985 -41892.62232342
170 1 26.516228 31.481640 13.919328 -0.03555357 0.01391956 0.00822836 -47.44331803 8.74744456 1.19113264
171 1 15.437047 23.233625 13.752886 -0.00031336 0.01800752 -0.06969319 -4249.81610341 -5347.85056309 -1771.30827297
172 1 10.834887 17.409792 8.767008 -0.05586784 0.04151403 -0.00366860 317.57663054 14.32829301 -237.50022484
173 1 17.985586 1.229660 9.013517 0.02539091 0.02006888 -0.01585045 -0.00000749 0.00005157 0.00011916
174 1 8.395587 8.952054 13.955780 0.00958932 0.06564527 -0.01434136 -0.01161158 -0.00644720 -0.00005089
175 1 4.625358 14.478420 19.959358 0.05448165 0.06435827 -0.02010209 2304.72055725 -21173.41806086 -11160.06860052
176 1 12.161491 15.028795 32.185572 -0.06762647 0.06974265 0.01275235 -0.00052727 -0.00077524 0.00156362
177 1 3.145224 25.138589 15.610367 -0.00438841 0.00766577 0.06655596 -1420192.87535513 -1460979.46754996 1332857.42028744
178 1 23.293158 20.375396 9.169325 -0.02759373 -0.01557790 0.01952448 -0.00011928 0.00016293 0.00005536
179 1 23.427981 13.086912 25.264713 -0.00930789 -0.01228484 0.04978340 2145.03750942 1130.22896569 -3857.00459631
180 1 20.779729 32.659951 23.328674 0.00447899 0.04116866 -0.01057033 -0.00001363 0.00000903 0.00006341
181 1 10.126304 29.450026 19.538557 0.04579118 -0.02372256 0.06758449 -0.00009113 0.00006441 -0.00004118
182 1 27.788088 10.667279 13.148646 -0.00735490 -0.02548871 0.01755495 0.00004742 -0.00008854 -0.00003860
183 1 25.078239 18.067029 22.554338 -0.03183171 0.02017837 0.04460682 0.00012990 0.00011581 0.00010041
184 1 18.314303 21.760690 9.643997 0.03708002 -0.03427181 0.02898111 0.00013350 -0.00005706 -0.00023542
185 1 13.884258 22.101614 5.335170 -0.02893954 -0.00681267 0.03398324 0.00016512 -0.00005803 -0.00017240
186 1 20.709661 13.242703 3.587935 0.01340838 -0.04947109 -0.03341947 -0.00009294 -0.00005044 0.00039431
187 1 21.627815 9.196101 33.065198 -0.06197919 -0.00465780 0.01880918 -0.00023942 0.00010792 0.00014123
188 1 27.831813 14.892716 11.528523 0.01116748 -0.02953179 -0.02509470 -42231.64181758 44249.90200110 -36716.81342751
189 1 5.407476 16.318558 28.027936 0.03990315 0.01827663 0.03357807 -128649.51696175 79517.93470945 46299.93276811
190 1 17.684068 7.725443 23.305498 -0.00293050 -0.00147328 -0.03288091 0.21274663 -0.06564661 0.17767131
191 1 8.378469 3.088506 25.287671 0.01980234 0.00700571 0.02324177 1.58993997 -1.79486119 -0.87428382
192 1 7.513808 0.409338 8.509944 -0.04056698 -0.01827199 0.06574025 -0.00001890 -0.00029712 0.00026943
193 1 30.721626 32.249681 29.796364 -0.02463226 -0.04538304 0.00957632 -117.21961065 174.69887687 117.24634733
194 1 27.774086 3.174698 30.415290 0.01632789 0.00304600 -0.07437488 0.00001458 0.00037329 0.00001679
195 1 9.791561 21.230935 21.425769 0.03129231 -0.04213997 -0.01634122 -0.00116702 0.00041689 0.00188132
196 1 16.339110 25.965829 6.702976 0.01520755 -0.00763687 0.02711134 0.00000617 -0.00011196 -0.00016362
197 1 16.020335 8.919867 10.442167 0.03343410 -0.03046230 0.02914438 0.00000646 0.00013860 0.00005804
198 1 0.367510 7.348665 15.361717 0.01206567 0.04697795 -0.00855117 0.02685209 -0.03167502 0.01758039
199 1 16.128019 21.363957 26.844539 0.03053737 0.05662772 0.03002446 0.00022546 0.00001740 -0.00000237
200 1 14.446675 5.996201 23.062724 -0.00077720 -0.01660523 -0.02732140 -0.00138654 0.00035855 -0.00167780
201 1 14.031524 15.935551 22.464480 -0.03642159 0.02803278 0.00570688 0.00023158 -0.00002454 0.00009943
202 1 32.609647 30.167782 24.189353 0.02361981 -0.01088240 -0.01224124 7.83826191 168.81170921 40.89741051
203 1 9.515088 28.507723 16.589475 0.01557890 -0.03444605 0.02798547 -0.00122664 -0.01543011 -0.00283988
204 1 27.169784 7.667493 15.447562 -0.02084694 -0.03463466 -0.00888388 -163.20806750 -18.24626232 -109.66505397
205 1 21.037514 17.962937 2.397559 -0.02165170 -0.00960550 0.01028239 -0.00109030 0.00086460 0.00091201
206 1 2.194370 32.766847 25.858329 -0.08314769 -0.01207868 0.02743277 0.00103841 0.00087953 0.00035252
207 1 25.346067 25.903727 32.258179 0.00112303 -0.02830654 0.03520297 0.00000678 0.00007514 -0.00023976
208 1 7.570902 19.380202 24.971739 0.00582745 0.02312277 -0.04284215 0.00084687 0.00010480 -0.00026809
209 1 16.833557 24.052900 0.391795 -0.03223951 0.03063264 0.00034508 -0.00002570 -0.00006485 0.00006867
210 1 15.030695 17.473109 3.317906 0.04113889 0.00939887 0.01317700 -0.00095415 0.00050013 0.00196332
211 1 17.281560 13.572202 30.635553 0.01451848 0.00220756 -0.03827340 0.00045030 -0.00072717 -0.00058720
212 1 25.060117 8.714813 15.508112 0.00048782 -0.05176810 0.03520519 0.35721858 -0.17730236 -0.01024431
213 1 0.605123 18.866769 5.156105 -0.04401704 0.01958213 0.00605933 -0.00000047 0.00028923 -0.00039733
214 1 25.898135 18.207297 23.754074 0.06244934 0.02513520 0.00747972 -0.00008799 0.00043944 0.00013626
215 1 19.604950 16.058438 14.873815 0.03898614 -0.03685007 -0.04295020 -4558152.68263028 -5093686.05161516 7875095.54995576
216 1 14.001526 27.977522 27.290707 -0.01313189 0.02157357 -0.04528505 0.00010632 0.00001367 0.00010243
217 1 16.757894 19.492052 3.030263 0.01680811 0.03912298 -0.06529174 736535.50202935 449911.02056607 250988.83361228
218 1 24.508298 25.224129 31.346670 -0.01963074 0.06787959 -0.00712468 0.00014327 -0.00010145 -0.00008217
219 1 22.443769 31.724357 1.564324 -0.00697733 -0.02878482 -0.03617376 -0.00002414 -0.00013628 0.00002050
220 1 13.577957 20.273111 1.570264 0.00550358 -0.00627910 0.02098524 -0.00253436 0.00092056 -0.00081660
221 1 6.572648 30.598726 8.924328 0.00098172 -0.04111025 -0.04801197 0.00085369 0.00019508 0.00010973
222 1 30.365135 26.547867 19.143691 0.05842297 -0.01526814 -0.02605663 -2542056.49614906 56736.21472470 1757335.64962396
223 1 27.536012 0.013983 23.884125 -0.00281775 -0.03417516 -0.00679041 0.00330465 -0.00046673 0.00309042
224 1 6.729988 19.225849 0.543812 0.03699591 -0.08564856 -0.00339811 491559.93800686 -103137.43628831 -231788.47855435
225 1 27.810635 6.007708 9.882314 0.04500595 -0.03393948 0.01194854 0.00008319 -0.00012321 -0.00028270
226 1 29.283032 6.720880 25.150955 0.04446015 -0.00220998 -0.01396332 -0.00000075 -0.00003676 0.00006037
227 1 29.443088 19.240562 16.933878 0.01931102 -0.00075081 0.05897563 -22.46976761 -10.65710260 -22.95162266
228 1 28.692620 32.242389 1.374829 -0.06110441 0.03106132 -0.03839310 -0.00151981 -0.00059357 -0.00179879
229 1 24.309048 23.574688 28.711143 0.04736713 -0.02659934 0.01583958 0.00001801 0.00002461 0.00002433
230 1 1.882752 29.006210 18.286914 -0.03350278 0.04018714 -0.00609818 -0.00336371 -0.00692689 -0.00443126
231 1 23.980528 14.283943 4.727088 -0.00241664 0.00899875 -0.02554879 -0.01200859 0.01680414 0.00948770
232 1 28.607260 1.753580 22.223930 -0.03541548 -0.00295124 -0.03944703 -0.00007731 0.00057029 -0.00093603
233 1 20.630114 26.476523 20.176972 -0.00828504 -0.01288235 -0.00764046 -0.35336223 -0.83895530 0.64547202
234 1 32.465349 21.826411 6.286941 -0.00605968 -0.00736610 -0.01139322 0.00014070 0.00002003 -0.00034124
235 1 23.556673 9.218071 23.614122 0.01503661 -0.02136205 0.03520915 -36.53122460 0.88050262 5.97695303
236 1 8.592754 8.695415 5.595064 -0.00938362 -0.04248622 0.00926383 -0.00000875 0.00014651 0.00012624
237 1 16.949094 27.484128 24.054532 -0.00985816 0.01663231 0.00520150 -8.08005296 -2.12961770 2.22240405
238 1 21.978914 1.406376 32.360297 0.01574950 -0.02446639 0.00871145 0.01367164 0.05816118 0.01815564
239 1 12.088364 9.912218 33.108613 -0.02150329 -0.00475856 -0.00182458 0.00224471 -0.00099507 0.00048388
240 1 20.681036 9.443828 3.033222 -0.03544279 0.02194023 -0.01202004 0.00008764 -0.00004254 0.00003189
241 1 5.978703 31.733473 3.033388 0.00785741 -0.00350748 -0.01538445 -0.00015072 -0.00019579 0.00016654
242 1 31.051832 32.073981 19.760455 0.00367272 0.02632416 0.03819934 -0.00010052 0.00027179 -0.00038375
243 1 5.735919 25.952859 8.137837 0.00345226 -0.04451561 -0.01878164 40.40312815 -58.62659570 -70.21941392
244 1 9.343432 15.744032 23.618616 0.00580797 -0.02883716 0.06389839 -154099.93979555 613226.34364541 -817877.72006909
245 1 26.354909 18.557922 26.999730 0.00623342 -0.00335812 0.01928717 -628.89854183 33.00984308 43.94029601
246 1 16.756539 29.561196 2.127025 -0.03243112 -0.03979697 -0.04804909 3433.34845465 -27965.88918291 -15856.27564892
247 1 28.311732 33.164559 13.006512 -0.03091120 0.04019919 0.01683384 -0.01602658 -0.18266129 0.04183091
248 1 32.554546 17.195211 5.129497 -0.01294417 -0.04044896 0.03984551 0.00008790 0.00018874 -0.00122935
249 1 13.678679 13.520494 15.170610 -0.00344242 0.02808455 0.00881997 0.00003781 -0.00008598 0.00006705
250 1 13.698142 4.361333 6.475962 -0.01506519 0.02598078 -0.09264805 7.10471258 -2.79266019 3.04386766
251 1 21.798748 4.263746 7.667013 -0.01861533 0.06325146 0.00345889 0.00001753 0.00004615 0.00012872
252 1 21.415027 1.869492 8.360679 0.01451992 -0.00781797 0.01815772 -0.00003119 -0.00008950 -0.00007005
253 1 9.919943 29.582591 30.537344 -0.00155392 0.02414563 -0.01913021 0.00008806 0.00013840 -0.00012978
254 1 19.095267 27.200231 15.772016 0.03572981 0.05547723 -0.01429456 10180.52705735 -251.28873409 -1388.69460487
255 1 16.585118 8.382205 8.427305 -0.04097139 0.00741516 0.00850240 -0.00003104 0.00016175 0.00008140
256 1 33.020416 21.399733 23.040236 0.02168319 0.02781627 0.01512355 -0.00101057 0.00019397 -0.00047375
257 1 17.818108 25.942843 10.782460 -0.01705873 -0.00962536 0.00329638 0.00021145 0.00032042 -0.00049114
258 1 5.302448 3.774294 14.129350 -0.00305322 -0.00014970 0.01024319 -0.00959335 -0.00437178 0.00145430
259 1 18.817801 13.750162 29.121675 0.02426889 -0.02999338 0.03502202 -0.00004446 -0.00018805 -0.00014958
260 1 10.044537 1.831571 20.216891 -0.02502791 -0.01865888 0.01880077 0.00019469 -0.00023206 -0.00012657
261 1 23.699636 1.904956 3.392399 -0.03383023 -0.05040090 -0.02139835 0.00034778 -0.00055060 0.00090343
262 1 16.321192 13.164889 27.615139 0.00053374 0.03063683 -0.02202298 0.00001497 -0.00004691 -0.00007785
263 1 17.022358 0.007452 9.143531 -0.01269497 0.00860081 0.02370379 -0.00004005 -0.00017187 0.00015796
264 1 22.476992 27.700005 11.471959 -0.02901537 0.05620404 -0.00393783 -0.00005862 -0.00020653 -0.00039493
265 1 31.058970 16.471190 23.401481 0.05440950 0.00716817 0.01807677 -2399.67194759 -6911.34370607 785.82560323
266 1 22.091361 23.662570 23.892385 -0.02718862 0.02199577 -0.04509707 0.00156441 -0.00081755 0.00164633
267 1 3.791138 3.905713 25.902444 0.03444766 -0.01975362 0.02052886 -0.00061969 0.00016462 -0.00006319
268 1 19.883976 32.829451 11.366206 -0.02247147 -0.03039984 0.00015054 -0.00001835 0.00020114 0.00011681
269 1 16.294375 13.098835 3.680514 0.04786372 0.02517468 -0.01275236 -0.00011705 -0.00059787 0.00038263
270 1 21.203171 21.329632 9.866588 -0.04284984 -0.03389823 -0.02649858 -0.00003887 -0.00000060 -0.00001262
271 1 19.131566 3.103066 19.250438 0.04494733 -0.04157971 0.03629406 39.34669549 53.15127845 -89.55311958
272 1 4.852245 24.021749 0.612109 -0.01425822 0.05341183 -0.03602759 -0.00021460 0.00040282 0.00009120
273 1 19.010525 26.870313 14.171257 -0.02521077 0.01975583 -0.06475490 2.80844518 10.93288936 53.04525424
274 1 6.252003 14.256604 30.390496 -0.05727584 -0.03150137 -0.03675340 -0.00825494 0.01104797 0.04226767
275 1 0.607987 23.271975 29.856532 0.01199285 0.04408644 -0.06070425 -0.00000852 0.00019145 0.00006741
276 1 25.040337 3.337438 17.862257 -0.03070044 -0.00035666 0.02680375 -0.00003242 -0.00019679 0.00014773
277 1 8.950773 17.751703 31.984952 0.00449591 0.00587009 0.02042493 0.00095510 0.00057044 -0.00024555
278 1 16.131372 16.428456 18.786898 -0.00198273 -0.02010105 0.03050909 142645.28608178 29233.45270545 -68259.60094177
279 1 17.710804 24.529315 19.103747 0.01900884 -0.01077351 -0.04943419 -0.00123432 -0.00081732 -0.00048740
280 1 25.377934 22.610086 9.671821 0.00379990 -0.02954676 -0.02462457 0.00004957 -0.00010201 -0.00013805
281 1 15.854294 8.602195 28.734963 -0.06431914 0.03206846 -0.03239321 -0.00022413 0.00051787 0.00070305
282 1 21.300566 19.642507 4.160708 -0.04382508 -0.01538264 -0.03236603 0.00065983 0.00039251 0.00035544