LAMMPS data file for silica system 3

3468 atoms
2 atom types

0.0 37.774899 xlo xhi
0.0 37.774899 ylo yhi
0.0 37.774899 zlo zhi

Masses

1 28.0855  # Si
2 15.9994  # O

Atoms  # atomic

1 1 14.173766 15.381248 6.821198
2 1 14.397332 36.982566 18.493194
3 1 35.984403 2.699318 1.484007
4 1 21.733038 27.811913 8.214492
5 1 19.014316 32.975240 28.774064
6 1 8.756747 12.634624 11.551234
7 1 27.179301 36.572945 10.579935
8 1 22.222993 37.342698 5.952548
9 1 24.896768 12.540817 37.460180
10 1 4.108827 17.046173 9.631593
11 1 1.196797 36.399786 21.462635
12 1 26.472164 23.430824 5.608576
13 1 6.442902 23.663917 29.457226
14 1 23.083115 21.545816 28.178651
15 1 9.202281 27.637860 15.533811
16 1 25.462174 10.377394 5.192725
17 1 1.101479 30.351157 7.440492
18 1 13.729829 29.043418 17.005577
19 1 8.217889 7.357130 15.409717
20 1 21.349480 14.821046 34.170025
21 1 0.144830 15.185948 28.060513
22 1 33.653322 13.538593 25.444762
23 1 21.922616 7.612869 25.722604
24 1 9.427278 29.612033 32.709330
25 1 18.072354 2.044551 27.853419
26 1 17.649006 3.570454 12.508668
27 1 10.978940 27.438153 16.019077
28 1 22.175668 18.928950 27.358733
29 1 27.124298 16.952991 5.100871
30 1 15.407488 6.049092 36.232094
31 1 35.891598 17.251255 1.043640
32 1 14.152128 33.812086 10.879969
33 1 23.495226 6.948210 31.170495
34 1 33.691332 23.236085 23.562565
35 1 14.300067 26.710305 18.073838
36 1 28.160691 36.585439 31.065165
37 1 19.542136 36.977415 22.932470
38 1 2.450549 27.589563 30.977764
39 1 5.093545 25.660110 34.787533
40 1 9.497590 22.098641 10.372545
41 1 29.253162 21.934374 16.170541
42 1 1.095018 35.689685 18.802051
43 1 30.375157 14.803791 32.074804
44 1 6.045455 8.744659 12.593826
45 1 3.346680 16.766047 18.355745
46 1 4.336558 16.133611 7.452838
47 1 33.061037 19.238508 35.960425
48 1 12.897540 12.896167 12.794806
49 1 10.134421 29.624459 10.680506
50 1 10.879670 1.771501 36.466429
51 1 33.479661 11.049523 19.671998
52 1 18.235647 3.312976 20.065918
53 1 4.280901 16.397692 3.316798
54 1 22.246250 1.851306 23.738828
55 1 26.715106 21.564300 17.734939
56 1 2.296438 0.428869 12.935317
57 1 29.133983 24.450857 4.732475
58 1 25.986833 21.717379 6.297952
59 1 28.531443 31.364669 8.784834
60 1 24.020541 14.283916 2.208358
61 1 32.537531 31.003540 12.010246
62 1 20.077554 19.354712 6.703501
63 1 5.502817 31.892134 32.764365
64 1 27.393591 2.748710 34.342754
65 1 37.047836 29.298738 13.350128
66 1 15.328101 32.850440 10.584002
67 1 5.358657 31.081349 7.303118
68 1 34.273160 22.501832 20.979040
69 1 29.303853 0.621975 26.953864
70 1 22.608049 19.785763 8.209472
71 1 31.331803 9.468291 18.501121
72 1 5.971469 36.781805 7.348460
73 1 30.341494 9.937792 9.672008
74 1 15.930067 31.951808 25.972412
75 1 32.925919 1.783440 36.101197
76 1 2.913838 27.238172 7.825945
77 1 31.762830 32.575626 20.823404
78 1 15.218401 29.969517 33.016447
79 1 27.887684 34.258689 23.667168
80 1 25.327010 21.602028 18.440279
81 1 24.737293 21.197589 27.622516
82 1 35.290610 14.091820 15.531846
83 1 0.567892 19.908678 4.963658
84 1 27.046855 29.448818 27.301452
85 1 20.649435 20.180004 24.423510
86 1 20.953767 28.342163 33.790698
87 1 20.252238 4.168144 4.949754
88 1 14.200281 18.747408 8.501255
89 1 17.102593 5.127335 9.097329
90 1 27.725225 37.229820 7.033803
91 1 12.809339 13.247153 8.436120
92 1 7.708231 4.974740 34.281273
93 1 24.529975 10.972397 9.749492
94 1 22.276733 26.337505 9.557373
95 1 13.114042 10.977851 3.313173
96 1 14.601073 20.157108 24.756394
97 1 15.742186 37.146707 23.640956
98 1 33.490642 34.601346 31.028278
99 1 10.198678 16.291449 0.014549
100 1 17.051850 11.096479 4.226863
101 1 31.677572 25.439388 37.741036
102 1 18.826573 12.492391 9.965449
103 1 16.445722 11.705390 37.425805
104 1 6.905022 0.722622 4.910718
105 1 33.677544 26.212730 29.614471
106 1 12.105781 23.522564 26.740800
107 1 12.330336 27.368961 23.785295
108 1 11.190247 1.996626 8.985320
109 1 23.402917 22.628323 19.176396
110 1 9.499447 16.792331 5.441238
111 1 25.021449 32.832433 17.515688
112 1 8.045961 31.273321 11.826544
113 1 22.437068 2.849041 27.120015
114 1 17.401827 15.991952 35.313354
115 1 18.565968 0.632749 36.257137
116 1 0.461341 20.242414 23.934064
117 1 33.789049 25.657182 30.640459
118 1 29.083749 8.066258 26.460111
119 1 24.084602 9.215974 4.847689
120 1 28.393102 36.684197 27.894717
121 1 28.310394 6.297246 9.332491
122 1 22.127125 1.187297 25.230722
123 1 5.470230 15.616006 12.095074
124 1 4.021346 21.863035 13.646026
125 1 1.661528 16.787920 22.296969
126 1 4.926389 22.098086 11.408931
127 1 9.808182 30.049298 17.668895
128 1 14.276003 30.711839 34.388163
129 1 11.902252 1.903782 20.425552
130 1 27.014859 22.203736 25.991237
131 1 24.429944 36.112611 32.709965
132 1 4.980376 17.097066 17.178836
133 1 17.237960 35.157248 12.359677
134 1 23.204102 33.858150 1.909093
135 1 33.187288 28.896249 7.852359
136 1 12.296156 11.732383 8.359831
137 1 24.120081 37.126240 6.293744
138 1 8.770911 10.968854 35.416652
139 1 23.640347 8.033522 30.370606
140 1 34.861423 15.239988 6.528141
141 1 11.707067 8.201488 7.608885
142 1 6.451527 33.092618 3.244411
143 1 15.614237 0.556616 11.082978
144 1 26.704405 7.662100 37.726912
145 1 1.824499 5.155657 29.724349
146 1 36.868240 36.037745 30.153301
147 1 36.754470 31.760926 2.191881
148 1 31.943744 18.274738 17.253807
149 1 0.095469 23.430152 25.369950
150 1 29.869196 12.312841 4.840234
151 1 16.615301 13.685390 28.449532
152 1 8.667027 5.219395 16.627962
153 1 23.722244 10.614657 4.322701
154 1 16.587577 36.334820 36.540207
155 1 26.770529 29.356892 7.687575
156 1 14.152514 22.844527 28.346912
157 1 6.294240 17.286866 6.148030
158 1 23.925056 29.168350 31.478144
159 1 27.665020 6.011692 31.293178
160 1 12.632452 31.570989 9.477746
161 1 17.969643 21.779939 1.311603
162 1 34.136971 19.323496 7.254359
163 1 6.074654 25.934291 3.087460
164 1 16.614221 20.408890 8.806503
165 1 4.880511 18.536390 12.855847
166 1 5.297613 7.946842 17.789699
167 1 5.025965 35.361814 29.292766
168 1 12.297915 9.759363 33.026425
169 1 16.127164 32.589079 28.046215
170 1 3.479748 30.733807 20.393952
171 1 25.596277 8.272872 0.010221
172 1 12.605034 7.200929 16.440260
173 1 3.433656 33.810284 4.484782
174 1 28.867009 35.482890 5.599315
175 1 13.088126 27.615812 26.988733
176 1 1.412594 2.670461 4.538263
177 1 21.456969 2.079248 22.227127
178 1 12.936467 25.286912 29.541570
179 1 29.895030 1.421652 35.780208
180 1 22.160504 33.834943 23.237047
181 1 18.287472 27.565425 8.288616
182 1 3.899360 3.418561 32.076030
183 1 34.467510 30.764407 34.164889
184 1 37.199805 19.871821 5.812823
185 1 22.964363 13.368283 13.087061
186 1 27.492878 3.424321 1.417749
187 1 26.263923 9.849041 14.562269
188 1 11.620805 23.225565 5.836809
189 1 27.220141 34.939023 31.583922
190 1 34.263230 35.397757 14.064886
191 1 30.059005 18.691988 10.190654
192 1 28.213393 9.221932 4.140905
193 1 26.616933 10.862362 11.556051
194 1 33.284326 5.119981 28.891981
195 1 14.589140 33.733376 16.633958
196 1 15.450799 16.238149 31.643673
197 1 0.397022 26.626130 7.752932
198 1 33.322203 14.200592 12.804013
199 1 26.919314 27.290439 23.938369
200 1 12.458473 23.056025 2.049890
201 1 36.081821 17.101143 11.501616
202 1 32.515839 12.245564 37.668126
203 1 26.087328 24.537745 5.736366
204 1 23.037502 5.859829 29.600568
205 1 5.228137 13.554869 18.008533
206 1 30.416106 23.902453 28.254392
207 1 9.216097 8.962603 14.377880
208 1 0.705668 31.379765 13.975529
209 1 2.551832 32.947851 36.559545
210 1 24.424666 13.470086 15.629629
211 1 9.676254 26.868355 13.450587
212 1 1.227072 1.743772 23.222103
213 1 10.969227 6.368532 20.865534
214 1 10.517911 2.770233 7.312555
215 1 29.385348 32.184647 32.945289
216 1 20.203258 35.922083 5.729274
217 1 25.624836 26.603410 2.009073
218 1 10.669431 35.850198 28.672240
219 1 2.066058 20.428433 24.501638
220 1 36.758127 27.063227 24.125089
221 1 34.319534 24.966839 35.210817
222 1 18.614570 27.143722 23.864469
223 1 20.871615 12.242640 34.140139
224 1 10.200910 6.020920 26.897621
225 1 20.645978 9.929535 32.875784
226 1 10.811443 2.409361 0.580476
227 1 34.860755 15.192237 8.064522
228 1 21.422199 18.429832 37.768956
229 1 33.563186 10.240862 26.355905
230 1 14.625485 13.766596 13.867442
231 1 24.147800 20.322287 28.521935
232 1 5.779025 16.070464 32.498617
233 1 0.119534 23.552357 29.681137
234 1 14.500064 33.378505 27.790680
235 1 22.893409 7.491612 25.313109
236 1 31.495459 27.572241 21.715160
237 1 26.993068 36.901868 0.408133
238 1 25.079837 29.955215 24.134063
239 1 10.316026 31.079578 34.499782
240 1 25.819322 19.303888 13.837734
241 1 12.467861 27.319852 22.934025
242 1 5.925015 5.329912 2.685765
243 1 25.819594 11.875082 0.764657
244 1 12.756309 31.433123 9.355427
245 1 23.932265 16.608535 20.734487
246 1 22.505254 17.180439 2.185499
247 1 21.444637 15.016460 7.550443
248 1 33.865507 27.804864 10.730649
249 1 20.359053 36.381503 9.272286
250 1 35.787353 25.813906 20.430050
251 1 37.140572 12.605819 10.510155
252 1 12.828102 28.363601 12.730388
253 1 3.881838 24.338825 8.423183
254 1 0.157260 7.523152 30.943136
255 1 35.517778 25.005200 11.728720
256 1 16.488643 7.349059 33.271297
257 1 25.142277 3.188677 13.860883
258 1 20.323749 30.119064 34.771969
259 1 5.011725 31.525252 2.484976
260 1 9.084503 0.793737 2.411111
261 1 1.224669 5.515432 33.110760
262 1 10.721521 18.121199 18.400772
263 1 37.595957 13.775482 10.014100
264 1 36.386472 22.382597 10.935132
265 1 10.859752 3.262343 21.035657
266 1 27.337237 17.932266 33.409514
267 1 18.281721 13.083651 9.473297
268 1 9.190381 11.956283 37.471752
269 1 13.630186 19.816708 10.375825
270 1 5.422053 24.396293 20.595632
271 1 2.562135 33.347187 19.178691
272 1 12.666671 29.440210 4.234197
273 1 17.896999 20.729826 29.280268
274 1 13.985953 32.296179 26.354524
275 1 29.127294 36.606810 31.910482
276 1 13.099896 24.395448 32.811715
277 1 19.836415 25.792696 6.507149
278 1 30.821080 28.612999 33.577877
279 1 26.825798 33.124832 6.127697
280 1 30.735447 35.998242 30.805723
281 1 23.240173 34.998448 3.569211
282 1 0.637058 36.464874 25.800452
283 1 4.312626 12.843930 28.285923
284 1 28.345815 6.421413 17.759781
285 1 30.496095 36.520669 23.517352
286 1 24.105423 17.729622 20.362861
287 1 3.737206 13.205655 19.162968
288 1 10.387388 13.592505 36.686856
289 1 0.196522 11.432325 22.058804
290 1 10.537946 25.553354 11.305086
291 1 24.108232 32.103474 24.880209
292 1 1.884384 30.039105 8.038550
293 1 23.979191 24.430300 30.361088
294 1 19.107417 14.201979 19.568464
295 1 20.615913 31.033521 7.746537
296 1 31.988998 13.814568 28.099324
297 1 12.681509 26.778073 30.188918
298 1 21.080867 23.403236 26.735584
299 1 26.005274 27.478049 32.096400
300 1 8.329985 8.111461 36.667431
301 1 32.158552 22.351602 0.308953
302 1 32.288406 28.391485 36.127014
303 1 0.497187 1.077557 19.546641
304 1 32.337173 37.446876 12.088921
305 1 1.373635 7.385296 33.128978
306 1 17.620116 32.233584 16.768591
307 1 2.016795 23.328842 16.457787
308 1 18.560818 35.847274 17.265962
309 1 30.088745 2.225416 18.095648
310 1 22.162338 4.277293 11.416833
311 1 27.938076 6.947055 4.852238
312 1 11.305102 32.447191 28.820114
313 1 29.343601 12.180800 3.737413
314 1 1.207012 22.143586 26.528767
315 1 14.274800 19.977700 10.539343
316 1 13.761480 27.568731 27.130697
317 1 1.061161 35.668252 10.161898
318 1 34.283989 19.336851 18.856550
319 1 17.021867 34.844602 7.861258
320 1 23.104835 12.004168 34.573047
321 1 6.396822 25.543001 15.931883
322 1 24.977627 5.953608 14.870432
323 1 4.051831 36.595453 8.083542
324 1 37.519017 15.808726 2.702761
325 1 0.663901 22.625517 23.221351
326 1 19.824009 2.508222 12.522544
327 1 13.563864 26.624381 15.822195
328 1 21.643775 10.816100 27.423887
329 1 1.766578 37.340649 24.232318
330 1 5.623216 27.103143 29.712118
331 1 29.789134 10.226880 36.212443
332 1 0.670047 14.348397 3.936831
333 1 14.538025 2.161669 24.364044
334 1 2.359464 23.263551 8.842509
335 1 6.767293 13.107923 24.212238
336 1 21.841465 25.704746 34.714414
337 1 7.679757 15.614523 10.041347
338 1 22.149236 10.705436 21.079025
339 1 31.094930 20.811909 31.660244
340 1 23.093692 32.875489 35.146412
341 1 19.182580 29.866573 17.709456
342 1 26.638624 1.416856 36.525020
343 1 33.783356 33.743840 10.624239
344 1 10.696614 15.208203 33.249071
345 1 32.435007 10.934321 20.465540
346 1 17.949504 24.579190 8.080048
347 1 3.212779 1.029560 14.408001
348 1 35.758166 25.868792 28.298317
349 1 35.703461 15.942954 17.919201
350 1 13.581629 6.851334 28.950454
351 1 34.249965 30.744068 1.802624
352 1 11.300163 22.365973 12.359384
353 1 5.670726 20.336612 19.699314
354 1 26.816186 37.769883 24.487142
355 1 11.970320 36.127202 21.580818
356 1 24.392617 13.506830 17.068074
357 1 15.813742 35.365456 30.582186
358 1 3.426337 11.856271 2.103629
359 1 19.520533 10.555224 2.772685
360 1 29.162566 3.442359 10.258297
361 1 29.148519 19.324577 30.866470
362 1 15.656988 30.781338 20.329080
363 1 3.322448 17.810506 20.910055
364 1 23.122079 35.050698 6.933857
365 1 22.892646 28.407572 33.617960
366 1 19.843385 8.081960 30.887860
367 1 34.188093 4.018044 8.677530
368 1 32.919437 18.298749 6.387752
369 1 24.375938 17.311818 36.564569
370 1 8.413005 13.680628 6.276345
371 1 1.878642 10.346671 30.968918
372 1 10.094698 26.304289 19.870483
373 1 19.631994 29.522718 23.336119
374 1 6.038534 8.339348 20.541411
375 1 31.931676 5.753845 4.037960
376 1 19.549965 7.126270 37.557152
377 1 0.164634 16.955763 6.139987
378 1 25.727685 23.803268 30.486906
379 1 21.282492 7.153378 2.013959
380 1 27.279022 16.618004 8.394067
381 1 9.512543 5.629471 10.712219
382 1 29.918528 23.445371 37.298872
383 1 19.804671 19.699219 7.229589
384 1 22.153299 22.981027 7.801690
385 1 3.322910 13.930298 6.501191
386 1 19.008503 19.873746 22.973027
387 1 22.771880 25.493453 8.705410
388 1 27.607522 19.825149 16.519189
389 1 24.474184 18.935072 19.857057
390 1 0.878184 30.296861 16.023201
391 1 19.570287 14.728831 20.834008
392 1 2.041446 14.502126 25.259236
393 1 35.449707 32.077698 36.370354
394 1 29.521637 23.897054 15.989074
395 1 4.651692 9.474025 10.243610
396 1 16.163238 23.036681 23.369889
397 1 17.208077 10.374640 2.134071
398 1 37.353195 35.491781 6.910010
399 1 22.868768 11.168313 7.344512
400 1 25.853569 29.698352 15.359008
401 1 2.231125 15.166464 20.103574
402 1 33.741164 24.810654 26.838931
403 1 7.654376 27.208188 18.956383
404 1 30.990964 8.173334 19.448875
405 1 7.912976 10.800465 31.436426
406 1 25.981361 27.518562 2.588991
407 1 27.528706 18.562854 17.344111
408 1 15.586941 32.176466 6.703682
409 1 30.753101 35.067340 6.355205
410 1 37.759638 37.417331 23.470260
411 1 10.143879 16.229044 6.436210
412 1 4.540626 26.594649 21.903625
413 1 21.288947 9.359142 8.873560
414 1 37.387112 23.751867 30.954851
415 1 14.298250 31.869968 27.287860
416 1 13.225915 27.110836 34.965305
417 1 8.073685 20.686767 36.515121
418 1 31.028224 23.431437 2.635382
419 1 15.348818 24.582600 15.474935
420 1 37.664740 28.459337 7.066997
421 1 18.524295 14.504511 22.432366
422 1 16.868930 8.986676 27.363052
423 1 4.029109 20.101308 11.716262
424 1 36.510613 11.467000 12.879033
425 1 26.710147 4.853139 12.262680
426 1 26.288112 1.161719 11.748017
427 1 0.311857 5.674893 22.823496
428 1 17.252358 5.893863 2.947403
429 1 2.127651 3.224396 3.629291
430 1 3.260453 2.080650 26.330265
431 1 35.556255 32.334516 10.042592
432 1 7.716636 1.809873 5.894157
433 1 21.447503 37.704066 32.449938
434 1 19.451109 15.995966 5.584108
435 1 15.812242 22.470708 22.493990
436 1 21.061262 31.127229 19.268367
437 1 17.861845 11.550578 6.808613
438 1 0.053034 12.167231 23.914562
439 1 21.112297 20.040210 29.176455
440 1 8.795764 25.631705 22.935591
441 1 12.805367 8.255463 21.255553
442 1 35.702873 2.884145 35.998906
443 1 17.556192 26.821822 30.340975
444 1 5.723456 1.698286 4.853762
445 1 12.879461 36.133740 1.615838
446 1 34.745281 21.202850 3.865920
447 1 5.770059 26.039416 22.984268
448 1 6.325651 34.161016 5.020433
449 1 19.324641 19.956266 32.883139
450 1 0.836722 5.154449 6.447370
451 1 2.375338 23.854217 8.673112
452 1 21.783645 29.563097 15.432123
453 1 29.043242 29.383906 9.950780
454 1 0.594751 3.901462 31.108526
455 1 15.310443 31.696768 20.682298
456 1 7.456591 26.904691 21.085433
457 1 13.289406 3.313501 3.864310
458 1 7.121007 25.419905 27.499047
459 1 23.832783 12.740279 16.638712
460 1 26.803549 24.925959 29.200508
461 1 9.108947 0.169567 10.064824
462 1 13.141565 36.283299 8.224815
463 1 31.217341 23.515310 6.328680
464 1 15.242354 19.271192 13.000238
465 1 8.542798 9.551419 22.106089
466 1 25.993137 17.715342 35.573976
467 1 27.521523 33.686067 17.968143
468 1 0.562201 22.365405 30.909666
469 1 20.267558 21.452405 36.829427
470 1 13.830984 30.290665 19.079129
471 1 17.516636 5.499159 28.270549
472 1 31.099864 16.276352 28.842291
473 1 21.951779 9.729088 34.893261
474 1 26.320470 33.179002 10.632290
475 1 34.615527 13.775254 0.360066
476 1 2.834192 3.374752 7.824820
477 1 7.045849 2.186940 33.823359
478 1 31.289330 28.815571 18.099216
479 1 16.059929 16.068101 9.888238
480 1 22.976870 2.231728 24.885496
481 1 19.410914 30.843969 36.745229
482 1 33.113860 27.195062 16.348350
483 1 8.103632 25.115523 7.615386
484 1 0.765280 21.653818 14.888237
485 1 33.091517 24.394277 24.449808
486 1 29.762581 12.679221 36.194849
487 1 8.360397 32.927620 34.406927
488 1 1.474746 23.867016 28.309297
489 1 36.030848 9.495813 21.223834
490 1 29.204435 5.604115 32.221314
491 1 15.247386 24.166524 1.587985
492 1 8.421390 18.063390 10.924861
493 1 36.182432 30.028495 32.670752
494 1 17.615112 17.891781 30.415934
495 1 14.639010 18.164034 19.967424
496 1 22.935320 24.552570 25.715328
497 1 16.772405 11.149143 34.758730
498 1 31.229329 0.129847 19.375631
499 1 10.373102 24.279023 18.987169
500 1 0.799561 27.491534 10.402707
501 1 9.830408 1.206006 31.290315
502 1 21.865604 18.314885 25.528761
503 1 13.046320 21.511841 9.416278
504 1 2.378124 21.204689 8.355495
505 1 28.332768 17.068330 9.458777
506 1 22.980204 4.405339 28.762710
507 1 17.080977 30.697607 5.216576
508 1 14.450496 6.800603 2.311656
509 1 36.088161 27.449076 12.299707
510 1 9.298305 7.718240 1.624716
511 1 3.878325 3.887308 25.168093
512 1 22.465021 21.463448 27.744266
513 1 9.488007 12.936959 4.786143
514 1 22.200719 35.240414 32.604945
515 1 20.965024 24.349992 37.484372
516 1 19.543023 32.886382 18.912278
517 1 1.808224 35.306742 4.226266
518 1 26.600631 8.988875 34.036571
519 1 7.573446 5.291296 16.572338
520 1 18.762066 30.934903 28.799687
521 1 12.400321 14.541440 21.783665
522 1 20.835729 32.563723 17.847650
523 1 33.752213 7.746562 32.774476
524 1 11.494623 29.814129 21.357452
525 1 33.074261 8.735588 26.499054
526 1 32.069367 29.339405 21.380568
527 1 25.513137 7.423414 8.176893
528 1 10.096873 31.278134 6.325016
529 1 11.291772 34.769310 28.528941
530 1 27.693749 17.192922 26.531637
531 1 21.370312 2.699569 21.778217
532 1 17.083595 4.304932 13.004576
533 1 33.800881 30.359780 34.522604
534 1 27.087615 23.894651 5.259687
535 1 4.049833 9.321087 11.868767
536 1 22.930705 33.140262 33.647259
537 1 25.775955 21.679542 9.231755
538 1 35.430759 25.351220 20.151292
539 1 3.926942 31.197659 13.183153
540 1 34.019572 6.361854 1.835673
541 1 16.421810 2.957896 2.334601
542 1 26.961164 9.722339 24.132521
543 1 21.563146 5.316920 14.572764
544 1 2.495557 15.928666 6.888710
545 1 3.638074 11.974085 0.129162
546 1 28.624648 5.975374 23.640919
547 1 31.450710 34.648584 21.062331
548 1 29.777342 17.178956 18.516529
549 1 20.654264 25.314359 25.306062
550 1 29.667572 23.304997 33.341417
551 1 26.791321 35.091094 28.347674
552 1 27.904482 32.501418 24.773163
553 1 6.783440 3.134121 11.930300
554 1 30.763646 0.820012 5.667731
555 1 4.008514 1.404281 30.608390
556 1 10.561327 27.535108 5.360716
557 1 15.447431 4.399476 0.093697
558 1 23.162142 18.169044 15.738392
559 1 2.971357 22.219378 29.464461
560 1 2.540153 15.618347 11.769015
561 1 33.690550 9.921796 35.670107
562 1 31.292818 3.783492 18.156042
563 1 24.515966 22.403226 25.657857
564 1 16.103684 34.176566 10.212854
565 1 3.554649 36.942865 24.627679
566 1 24.901121 30.881986 15.919908
567 1 14.590010 35.853857 14.610627
568 1 2.964492 11.628228 32.997936
569 1 3.587106 27.073470 10.063276
570 1 28.171401 19.437243 24.046584
571 1 9.186713 6.350664 2.391472
572 1 31.186080 26.838484 11.081348
573 1 31.614318 31.492808 5.203838
574 1 26.959471 11.040919 17.648031
575 1 16.248677 22.671881 13.112877
576 1 2.767161 25.409292 36.285471
577 1 25.228637 20.383536 6.180787
578 1 23.616029 23.083745 23.373337
579 1 33.707036 27.058918 29.592851
580 1 11.836345 10.213389 7.811128
581 1 29.402882 26.389110 12.922565
582 1 5.330268 31.982772 14.516062
583 1 7.167757 5.455096 34.740814
584 1 4.916904 13.586628 23.880970
585 1 15.415042 18.036021 30.318957
586 1 37.745982 17.649105 14.310151
587 1 15.365428 13.943039 17.896666
588 1 12.583127 17.475293 35.714550
589 1 10.811676 24.624502 18.393867
590 1 27.666198 17.840785 6.064470
591 1 32.955530 25.527033 19.864718
592 1 31.394104 36.875312 15.465020
593 1 13.336851 28.466871 17.172678
594 1 3.239911 13.387988 30.545996
595 1 26.695302 32.593835 5.538802
596 1 9.214114 8.111603 36.692000
597 1 6.381103 22.586748 23.908247
598 1 23.378637 26.127502 18.280091
599 1 3.161316 26.489123 10.618708
600 1 2.866055 6.413648 10.849692
601 1 16.335361 32.536410 20.266330
602 1 17.828516 7.224744 36.236053
603 1 34.319098 30.827235 12.207005
604 1 21.215427 14.688656 15.220041
605 1 2.724755 5.290170 36.308054
606 1 23.045855 0.238345 30.566918
607 1 3.287988 26.750512 23.452509
608 1 2.377978 20.056174 1.791864
609 1 2.432316 1.933275 9.649267
610 1 30.286754 13.691691 24.158493
611 1 4.716159 35.238872 19.047645
612 1 0.929070 20.300483 6.970607
613 1 7.396946 22.679086 8.551614
614 1 8.083113 20.434703 8.894457
615 1 4.174603 15.421864 1.964236
616 1 34.198489 17.056780 0.494650
617 1 8.486210 36.181473 18.751116
618 1 13.557021 11.903305 15.751024
619 1 7.999379 28.298199 19.201178
620 1 28.385331 9.609244 0.054865
621 1 36.499203 19.343245 3.012142
622 1 3.919192 16.419923 26.263536
623 1 14.983106 30.981178 12.430189
624 1 1.722739 0.313198 32.465422
625 1 37.187963 5.016463 2.343584
626 1 34.541657 3.806063 8.627945
627 1 30.282138 37.698757 18.359126
628 1 7.961845 32.022463 14.895078
629 1 10.299034 18.525436 32.327694
630 1 8.801582 16.010307 16.781261
631 1 31.457585 25.536028 29.482803
632 1 26.192578 22.388273 5.001745
633 1 31.464572 22.939892 26.486687
634 1 29.417127 11.774431 16.519508
635 1 20.447201 12.950084 9.766202
636 1 29.344778 28.472153 31.421134
637 1 26.317583 11.775467 12.352478
638 1 19.937372 31.564534 13.081189
639 1 28.933269 11.547507 12.787762
640 1 28.420546 25.633115 7.865806
641 1 31.240644 29.638579 30.122388
642 1 17.767468 12.414329 32.100422
643 1 22.219686 35.167653 9.588291
644 1 36.854197 14.324923 14.523384
645 1 9.021275 36.453736 1.500201
646 1 17.881037 13.806030 6.016155
647 1 26.942699 33.933989 9.200804
648 1 18.798874 21.841974 14.750680
649 1 34.811010 17.433728 37.124425
650 1 11.151345 2.766909 21.719331
651 1 31.101588 14.671447 6.992091
652 1 27.886942 10.232657 29.076764
653 1 9.909168 21.051507 33.531915
654 1 7.729389 31.001651 10.026579
655 1 24.956549 9.206226 4.327844
656 1 25.083413 22.471842 15.166001
657 1 1.385674 17.953627 5.617373
658 1 13.579005 22.143570 35.483941
659 1 19.314758 7.357909 35.743603
660 1 0.978746 24.282466 9.911836
661 1 28.614870 12.511922 16.195854
662 1 29.102414 33.915006 6.895938
663 1 11.192416 0.163368 32.356906
664 1 35.777674 10.556032 14.526529
665 1 16.203789 15.478335 14.840827
666 1 17.976116 5.809160 2.178856
667 1 27.331141 31.978946 30.604951
668 1 23.670752 36.596747 0.058291
669 1 12.070679 11.710827 13.208860
670 1 30.219527 13.277748 19.910529
671 1 23.191516 31.934267 23.264109
672 1 14.403814 26.243815 19.474305
673 1 19.960341 12.660353 0.060724
674 1 13.442083 11.435139 3.790297
675 1 7.503462 37.053024 10.570057
676 1 19.573368 20.750984 21.155079
677 1 1.787816 29.141906 27.588710
678 1 36.913335 6.976694 20.919411
679 1 30.364606 4.697158 29.825956
680 1 10.197836 10.608932 35.719777
681 1 11.856524 22.069509 16.624467
682 1 2.952461 35.904383 8.073449
683 1 10.112134 14.250451 18.832147
684 1 5.450378 23.795791 19.442835
685 1 11.446185 26.164852 19.419326
686 1 31.756815 32.312830 37.023432
687 1 2.543601 15.305582 18.944829
688 1 8.832144 34.829787 3.329041
689 1 16.186775 6.995561 25.767725
690 1 26.631014 32.959129 15.448822
691 1 29.279717 20.760351 30.683452
692 1 3.225183 17.506688 5.687411
693 1 29.855599 5.767146 0.304480
694 1 35.112666 18.305653 37.215487
695 1 17.111925 22.317132 28.111147
696 1 10.607129 5.018637 24.974101
697 1 19.291143 31.232331 1.702469
698 1 20.578636 7.016910 23.319104
699 1 28.725536 9.935184 18.199519
700 1 15.873170 28.515169 22.659945
701 1 4.559710 36.896562 34.463458
702 1 21.861090 29.369112 0.754383
703 1 7.611333 29.005949 4.011242
704 1 1.613996 23.258607 1.293480
705 1 6.917107 3.021309 20.182055
706 1 25.571123 6.924486 17.707272
707 1 0.761960 9.997519 6.784536
708 1 6.269287 8.500107 30.421791
709 1 35.876733 26.671054 2.729444
710 1 23.728825 27.731133 4.197748
711 1 11.118013 16.182061 11.737567
712 1 19.579425 4.945497 16.800364
713 1 27.699587 17.411707 7.949158
714 1 30.299720 14.898254 16.057823
715 1 13.509192 10.944583 22.738523
716 1 7.094402 29.057574 18.196150
717 1 33.377429 35.466507 14.466766
718 1 5.999531 19.086148 10.216289
719 1 16.111862 14.257867 17.016540
720 1 18.833265 23.701063 0.144072
721 1 9.686254 6.431336 26.837051
722 1 31.441075 27.415377 36.817827
723 1 2.918018 17.556045 33.973621
724 1 12.053531 30.307448 21.219697
725 1 36.964880 14.015317 15.758451
726 1 6.187774 6.030390 32.524275
727 1 15.385532 23.438023 28.416253
728 1 16.554594 36.029094 35.439416
729 1 25.691400 37.593875 0.100047
730 1 0.349520 2.551121 35.641367
731 1 22.847564 35.044620 4.801121
732 1 1.207991 20.522432 6.618895
733 1 32.480138 15.880922 29.103927
734 1 19.508425 19.970473 25.756627
735 1 12.671659 35.842611 15.125451
736 1 15.036011 26.722804 24.034350
737 1 37.615550 32.117383 10.750388
738 1 3.836140 4.027831 13.659735
739 1 18.025653 24.067298 32.400515
740 1 37.379792 15.439206 20.609244
741 1 22.693170 21.099614 3.411568
742 1 4.345650 33.572649 25.520118
743 1 25.640133 30.778299 3.178441
744 1 15.694713 9.318102 24.961904
745 1 8.119144 26.144948 14.652901
746 1 16.598500 30.900351 13.151974
747 1 9.693009 32.118666 25.890882
748 1 15.257115 18.833089 13.140304
749 1 20.821864 5.239220 33.560811
750 1 20.929109 14.553495 21.591894
751 1 6.089036 2.964303 20.705410
752 1 2.663006 24.964272 30.229043
753 1 37.335479 29.058110 36.797482
754 1 0.837957 21.110413 6.222913
755 1 9.259962 27.747002 9.550478
756 1 6.792364 14.046415 3.144941
757 1 5.533795 5.532153 8.539263
758 1 32.890663 11.152536 10.345338
759 1 4.759199 0.608372 6.058295
760 1 27.310166 36.635846 28.097498
761 1 32.230590 29.719238 11.183344
762 1 27.622146 28.353350 9.767222
763 1 34.777598 37.697354 21.202947
764 1 11.959350 13.508705 22.001750
765 1 0.293877 11.647381 1.851125
766 1 23.578330 22.818065 22.326781
767 1 5.703657 35.680628 20.180439
768 1 20.997631 20.559338 19.809652
769 1 35.449021 22.741404 18.325556
770 1 28.952389 9.498971 7.253159
771 1 16.591213 0.592524 11.087575
772 1 15.868269 21.860286 20.519455
773 1 13.878569 12.966728 0.049817
774 1 33.283945 8.736341 13.523533
775 1 0.765130 36.144654 18.682428
776 1 0.879116 9.488829 33.214055
777 1 14.192091 26.042209 23.188149
778 1 17.827424 31.474756 1.524380
779 1 34.466710 27.124471 32.626701
780 1 0.639622 3.203107 7.777052
781 1 22.421699 3.491190 35.189094
782 1 28.278067 30.506867 22.054875
783 1 23.834000 8.350438 34.376719
784 1 24.512805 15.780093 33.305070
785 1 32.630784 0.020369 34.935645
786 1 13.728426 15.946556 3.222707
787 1 33.150388 20.368402 34.212886
788 1 29.495234 33.921154 35.820375
789 1 33.464948 7.926507 2.648494
790 1 23.430001 5.857234 32.603766
791 1 35.790066 4.581220 8.908807
792 1 23.617816 27.396545 19.352539
793 1 13.940165 11.560061 25.156878
794 1 28.125735 10.910755 12.314459
795 1 17.378998 17.006901 31.831195
796 1 16.504214 36.959315 11.746610
797 1 26.171236 28.668741 23.813446
798 1 13.865192 9.723835 22.826698
799 1 24.879727 9.731652 12.710842
800 1 32.564343 30.617030 6.942301
801 1 35.257423 23.723878 18.764862
802 1 7.587638 27.583049 34.782943
803 1 2.453419 19.671077 33.133575
804 1 35.981457 2.725072 29.882017
805 1 10.630092 20.455272 29.605416
806 1 20.592402 4.157502 22.307395
807 1 4.450295 13.124654 21.087119
808 1 37.450601 27.459719 11.457229
809 1 33.111677 8.542683 14.505252
810 1 24.441165 15.508917 27.559697
811 1 24.576623 25.206604 15.875421
812 1 2.082527 32.966429 2.796204
813 1 17.528857 11.405763 11.193872
814 1 8.560710 10.261655 36.087921
815 1 36.719199 21.566618 19.818854
816 1 1.826986 30.361024 6.442576
817 1 5.386074 16.019237 13.128319
818 1 3.650438 5.588203 37.485435
819 1 27.757966 22.610438 11.469082
820 1 16.184282 23.722017 29.626082
821 1 35.750510 4.634242 7.239246
822 1 21.439960 35.451492 17.094726
823 1 23.947264 11.095450 30.663350
824 1 22.863678 14.422772 20.497464
825 1 26.244383 8.065420 12.898054
826 1 9.463008 36.269929 1.623118
827 1 2.132061 13.437898 20.323908
828 1 12.424060 32.370536 6.398443
829 1 13.773713 18.432291 7.636749
830 1 10.958133 35.788309 19.651524
831 1 32.851566 10.175284 23.132196
832 1 28.831497 15.925398 23.598478
833 1 32.608029 5.318141 13.400334
834 1 31.122880 8.722084 21.007162
835 1 16.545993 25.116422 25.233835
836 1 21.852071 35.764534 6.622932
837 1 31.545326 18.487715 24.999887
838 1 10.340761 3.574000 29.377767
839 1 9.509851 14.743281 1.795235
840 1 24.561387 25.968303 34.060094
841 1 33.658214 26.636431 12.168393
842 1 14.151468 14.418745 4.896845
843 1 35.783670 30.906080 5.487551
844 1 35.752575 31.852706 34.709591
845 1 10.790189 12.676121 17.751386
846 1 8.469158 17.581291 0.347593
847 1 33.148856 6.130641 18.919476
848 1 35.086327 31.012533 29.318028
849 1 22.870648 16.480187 16.849017