ITEM: TIMESTEP
0
ITEM: NUMBER OF ATOMS
3468
ITEM: BOX BOUNDS pp pp pp
0.0 37.774899
0.0 37.774899
0.0 37.774899
ITEM: ATOMS id type x y z vx vy vz fx fy fz
1 1 14.173766 15.381248 6.821198 -0.00665184 -0.01577056 -0.04828099 -0.00015942 0.00013424 0.00014793
2 1 14.397332 36.982566 18.493194 -0.05034203 0.01303598 -0.03946796 -0.00010980 -0.00007988 0.00005021
3 1 35.984403 2.699318 1.484007 0.07118237 -0.04890762 -0.03889087 -0.00012498 -0.00006144 0.00002392
4 1 21.733038 27.811913 8.214492 0.01447898 0.00397328 0.04122232 -0.00006837 -0.00002276 -0.00008671
5 1 19.014316 32.975240 28.774064 0.01450585 0.03641724 0.05138246 -0.00009423 0.00004715 -0.00001012
6 1 8.756747 12.634624 11.551234 -0.01006339 -0.06131968 0.04675892 0.00001234 0.00007042 0.00001838
7 1 27.179301 36.572945 10.579935 0.02999663 0.01666905 0.04701111 -0.00003351 -0.00008805 0.00004490
8 1 22.222993 37.342698 5.952548 -0.00258722 -0.01923634 0.03498412 0.00019944 0.00008805 -0.00015050
9 1 24.896768 12.540817 37.460180 0.00846479 -0.00724008 0.04887827 -0.00020246 -0.00007351 -0.00015373
10 1 4.108827 17.046173 9.631593 0.04291329 -0.01807760 -0.04692059 -0.00012848 -0.00023755 0.00002331
11 1 1.196797 36.399786 21.462635 -0.03117746 -0.01891965 -0.01571502 -0.00011583 -0.00011681 -0.00006636
12 1 26.472164 23.430824 5.608576 0.00872959 0.09787295 0.03252679 -0.00006426 -0.00002624 -0.00014005
13 1 6.442902 23.663917 29.457226 0.03922315 -0.00094715 0.00733638 0.00009850 0.00002790 0.00004138
14 1 23.083115 21.545816 28.178651 0.01648153 0.03877943 0.03123556 -0.00004400 0.00010745 0.00004886
15 1 9.202281 27.637860 15.533811 0.02264318 -0.02061227 -0.05469527 0.00001904 0.00009982 -0.00016705
16 1 25.462174 10.377394 5.192725 0.03836956 0.02350862 -0.02026646 0.00001940 -0.00006694 -0.00007264
17 1 1.101479 30.351157 7.440492 0.07191691 -0.02711474 -0.00112808 16762.23685265 -19068.86528851 13243.98475491
18 1 13.729829 29.043418 17.005577 -0.00784751 -0.02189333 -0.01649171 0.00000068 -0.00003238 0.00012409
19 1 8.217889 7.357130 15.409717 -0.01995282 -0.02323300 0.01789803 -0.00009819 0.00016970 -0.00003860
20 1 21.349480 14.821046 34.170025 0.02750118 -0.02032062 -0.01608266 -0.00000497 -0.00005332 0.00000349
21 1 0.144830 15.185948 28.060513 0.01218056 0.00775994 0.00421917 -0.00009108 -0.00003725 0.00001536
22 1 33.653322 13.538593 25.444762 0.00640701 0.01954538 0.03543468 -0.00001064 -0.00024892 0.00024740
23 1 21.922616 7.612869 25.722604 -0.01765382 0.01084319 -0.01564377 0.00015816 -0.00011651 -0.00006216
24 1 9.427278 29.612033 32.709330 -0.06376519 -0.02877965 0.05744967 -0.00001716 0.00006647 0.00004723
25 1 18.072354 2.044551 27.853419 0.03283732 -0.06454284 -0.02223433 -0.00010988 0.00023425 -0.00003966
26 1 17.649006 3.570454 12.508668 -0.00549129 0.00114234 -0.01804277 -9381.39820354 12187.21281600 8228.77334741
27 1 10.978940 27.438153 16.019077 0.02528383 0.04896780 0.03634111 -659.46828617 -735.90652856 -962.91878253
28 1 22.175668 18.928950 27.358733 -0.01756850 -0.04406103 0.01936601 0.00001832 0.00009221 -0.00007757
29 1 27.124298 16.952991 5.100871 -0.04777179 0.02358237 0.04581356 135.49880042 221.81261225 240.82939927
30 1 15.407488 6.049092 36.232094 0.01661338 -0.03468099 -0.03148806 -0.00011542 0.00000403 0.00001800
31 1 35.891598 17.251255 1.043640 0.00210668 0.05705943 0.00454048 -0.00000956 0.00007983 -0.00001003
32 1 14.152128 33.812086 10.879969 -0.03589018 -0.00360876 0.06782174 0.00010226 0.00003235 -0.00011179
33 1 23.495226 6.948210 31.170495 -0.04735187 0.04350319 -0.01069855 66.45407248 495.30429036 -365.82520223
34 1 33.691332 23.236085 23.562565 0.01554426 0.02993368 -0.02391706 -0.00015173 -0.00011799 -0.00008479
35 1 14.300067 26.710305 18.073838 0.03770080 0.01582065 0.04428428 4402.16940805 -1499.30654646 5144.06770790
36 1 28.160691 36.585439 31.065165 0.01298290 0.06164956 -0.05285945 -0.00010222 -0.00007060 -0.00005623
37 1 19.542136 36.977415 22.932470 0.02253923 0.00908035 -0.03419743 -0.00002913 0.00002403 0.00006267
38 1 2.450549 27.589563 30.977764 0.04188967 -0.03528285 0.02303238 0.00012557 -0.00021993 0.00020241
39 1 5.093545 25.660110 34.787533 -0.01253457 0.07346059 0.02038697 -0.00010609 0.00001002 0.00009607
40 1 9.497590 22.098641 10.372545 0.02119375 0.05331031 0.00098189 5.65971780 33.83295100 17.77744861
41 1 29.253162 21.934374 16.170541 0.01697493 -0.04171480 0.00182926 0.00004170 0.00007502 -0.00012379
42 1 1.095018 35.689685 18.802051 0.00310612 -0.06029859 0.01511277 -0.00007101 -0.00009738 -0.00023704
43 1 30.375157 14.803791 32.074804 0.04456065 0.02837749 0.04169500 -0.00009391 -0.00010347 -0.00009312
44 1 6.045455 8.744659 12.593826 0.02248984 0.00205287 -0.05801677 0.00006676 -0.00007666 0.00008448
45 1 3.346680 16.766047 18.355745 -0.02788763 0.00330965 -0.01752537 -0.00015674 -0.00006534 -0.00003904
46 1 4.336558 16.133611 7.452838 -0.02931407 0.08713515 0.04624812 0.00011862 0.00000614 0.00002916
47 1 33.061037 19.238508 35.960425 0.07025239 -0.01680282 -0.00270024 -0.00010973 0.00008515 -0.00000589
48 1 12.897540 12.896167 12.794806 -0.01257846 -0.06124494 0.01373626 11588.41537921 -11401.54896513 2218.30203343
49 1 10.134421 29.624459 10.680506 -0.01486571 -0.01634677 -0.02481349 -0.00005374 0.00004528 -0.00024136
50 1 10.879670 1.771501 36.466429 -0.00193483 0.02497490 -0.03020791 0.00011586 0.00007270 -0.00010584
51 1 33.479661 11.049523 19.671998 -0.01102601 -0.00821082 -0.00430695 0.00000506 -0.00007092 -0.00012754
52 1 18.235647 3.312976 20.065918 -0.02675667 0.01737241 0.00041403 6.10064617 18.81339923 -3.81582622
53 1 4.280901 16.397692 3.316798 -0.00875695 0.01305588 -0.00396689 -0.00011902 -0.00002415 -0.00021201
54 1 22.246250 1.851306 23.738828 -0.02654046 0.00896831 0.00411801 0.00011821 0.00007245 0.00021493
55 1 26.715106 21.564300 17.734939 -0.06232157 0.03192593 -0.04000524 0.00004818 0.00024050 0.00002562
56 1 2.296438 0.428869 12.935317 0.00007637 -0.01269143 0.00552458 -0.00009113 0.00008347 0.00001347
57 1 29.133983 24.450857 4.732475 -0.01642038 0.00927919 0.04198374 0.00000921 0.00004904 -0.00004057
58 1 25.986833 21.717379 6.297952 -0.01603894 -0.01253491 -0.02249318 0.00009802 0.00020952 0.00017516
59 1 28.531443 31.364669 8.784834 0.01016729 -0.00837177 0.00381807 0.00001331 0.00004554 -0.00003802
60 1 24.020541 14.283916 2.208358 -0.03756525 0.00185399 -0.05739610 -0.00010246 -0.00012986 -0.00031360
61 1 32.537531 31.003540 12.010246 0.01634094 -0.02110280 -0.01285593 0.00009664 0.00003160 -0.00004731
62 1 20.077554 19.354712 6.703501 0.00402965 -0.03397834 -0.03301553 -1803118.50291918 2276385.57079684 3476210.29196621
63 1 5.502817 31.892134 32.764365 0.07692444 -0.00053097 0.02982299 0.00005267 0.00014618 -0.00008112
64 1 27.393591 2.748710 34.342754 -0.02109996 -0.00570599 -0.02354158 0.00017393 -0.00015739 0.00018041
65 1 37.047836 29.298738 13.350128 0.04441805 0.00827188 -0.01166071 0.00015609 0.00007502 0.00012780
66 1 15.328101 32.850440 10.584002 0.01696311 -0.02146006 -0.04218131 42.75769105 72.32999027 -19.83716746
67 1 5.358657 31.081349 7.303118 0.03667179 -0.00762527 0.01199561 0.00096059 0.00040629 -0.00014983
68 1 34.273160 22.501832 20.979040 -0.00878151 0.01284701 -0.06248092 0.00009592 -0.00001110 -0.00003572
69 1 29.303853 0.621975 26.953864 -0.02553763 -0.05843291 0.05348523 0.00016890 0.00000927 0.00009327
70 1 22.608049 19.785763 8.209472 0.00480342 -0.01057762 -0.02714632 -0.00535514 -0.00091561 -0.00318849
71 1 31.331803 9.468291 18.501121 0.03624301 0.05699173 0.01056581 529.15219267 57.13113187 -32.52293586
72 1 5.971469 36.781805 7.348460 0.00762631 0.00877774 -0.01666241 0.00011280 0.00007826 0.00001169
73 1 30.341494 9.937792 9.672008 -0.00504100 -0.05849764 -0.03279963 -17077.51756372 -18273.46002555 12098.85225756
74 1 15.930067 31.951808 25.972412 0.01199501 -0.00792719 0.03849021 -0.00009548 0.00011678 -0.00012261
75 1 32.925919 1.783440 36.101197 -0.03846030 0.03460487 -0.01892456 -0.00009634 0.00006800 0.00015543
76 1 2.913838 27.238172 7.825945 -0.01984883 -0.01984331 -0.02387292 -358744.87489882 -2332666.10493205 -2845188.08598756
77 1 31.762830 32.575626 20.823404 0.02009181 -0.01785536 -0.05965527 -0.00021279 -0.00004324 0.00001545
78 1 15.218401 29.969517 33.016447 0.00976003 0.01121046 -0.00379423 -0.00000518 0.00022108 -0.00015421
79 1 27.887684 34.258689 23.667168 0.00154627 -0.00126391 0.02227138 -2.59932247 12.69061889 1.74105201
80 1 25.327010 21.602028 18.440279 0.04648599 -0.03758657 0.06052694 -0.00010943 -0.00022151 -0.00003928
81 1 24.737293 21.197589 27.622516 0.04461518 -0.00921432 0.00961092 -0.00010117 -0.00004450 0.00022874
82 1 35.290610 14.091820 15.531846 0.04198674 0.02159792 0.01870976 -0.00007053 -0.00002879 0.00006831
83 1 0.567892 19.908678 4.963658 0.03558374 -0.04842883 -0.02877433 0.00002943 0.00014988 0.00008187
84 1 27.046855 29.448818 27.301452 -0.00459695 0.03365395 0.05711277 -0.00008421 -0.00003542 0.00007729
85 1 20.649435 20.180004 24.423510 0.02188935 -0.01643698 -0.00211183 -0.00017601 0.00021621 -0.00010601
86 1 20.953767 28.342163 33.790698 -0.02325011 -0.01799135 -0.02343128 -8257412.28177047 -4309382.82992731 -3199645.55590694
87 1 20.252238 4.168144 4.949754 0.01779292 0.01369844 0.03410255 0.00001931 0.00005786 -0.00004757
88 1 14.200281 18.747408 8.501255 0.00753775 -0.01246049 0.01596811 0.00010550 -0.00011644 -0.00007571
89 1 17.102593 5.127335 9.097329 0.03887215 0.02025357 0.04328173 -0.00047276 0.00087992 -0.00172565
90 1 27.725225 37.229820 7.033803 0.00864199 -0.04575304 0.02734691 -0.00002481 0.00017650 -0.00010902
91 1 12.809339 13.247153 8.436120 0.02595464 0.05473966 -0.02500271 -0.00015548 0.00021728 -0.00099083
92 1 7.708231 4.974740 34.281273 0.00771994 0.00617639 -0.00734651 -0.00009742 0.00002628 0.00003326
93 1 24.529975 10.972397 9.749492 -0.04565810 -0.01102141 -0.00785532 -0.00003906 -0.00000931 -0.00013383
94 1 22.276733 26.337505 9.557373 -0.01349520 0.01307496 0.05081277 -0.00002212 0.00001464 0.00011943
95 1 13.114042 10.977851 3.313173 0.02403576 -0.02646756 0.03282919 -0.00015085 -0.00003765 0.00002933
96 1 14.601073 20.157108 24.756394 0.03645085 0.01909711 0.05261290 0.00015455 -0.00006689 -0.00008134
97 1 15.742186 37.146707 23.640956 -0.00514373 0.07026152 0.00907292 0.00000708 -0.00032164 0.00002854
98 1 33.490642 34.601346 31.028278 -0.07403958 0.07153289 -0.03705698 0.00005907 0.00003527 0.00002022
99 1 10.198678 16.291449 0.014549 -0.00314300 -0.01381972 -0.00884009 -0.00016402 -0.00012752 0.00013427
100 1 17.051850 11.096479 4.226863 -0.00011905 0.03110274 0.01476291 -0.00000944 -0.00002185 -0.00007896
101 1 31.677572 25.439388 37.741036 -0.00022715 -0.01446140 -0.00559632 0.00000185 -0.00004884 0.00008569
102 1 18.826573 12.492391 9.965449 0.03607333 0.00851323 -0.02328558 -0.00005116 0.00006038 0.00014601
103 1 16.445722 11.705390 37.425805 0.01852566 0.05573845 -0.02633952 0.00006178 -0.00012340 0.00008211
104 1 6.905022 0.722622 4.910718 -0.05855402 0.00146611 0.01940669 -0.00004896 -0.00005233 0.00001352
105 1 33.677544 26.212730 29.614471 0.05041661 -0.02492857 -0.00672371 -0.00002472 -0.00004640 0.00006860
106 1 12.105781 23.522564 26.740800 -0.01358520 0.02297635 -0.03489470 0.00001155 -0.00019118 0.00010231
107 1 12.330336 27.368961 23.785295 0.04547493 0.01821420 -0.03977972 0.00008701 0.00007203 0.00018849
108 1 11.190247 1.996626 8.985320 -0.00893395 0.00516416 -0.02332468 -0.00004394 -0.00012493 0.00000592
109 1 23.402917 22.628323 19.176396 -0.02310040 -0.02169400 -0.02245549 0.00015482 0.00002728 0.00016615
110 1 9.499447 16.792331 5.441238 -0.06849658 0.02906256 0.04106557 0.00017101 -0.00002772 -0.00006879
111 1 25.021449 32.832433 17.515688 -0.05571830 0.00416681 -0.01062368 6.12549307 3.23470765 -0.98099809
112 1 8.045961 31.273321 11.826544 -0.01127671 -0.02882812 -0.01223468 0.00001108 0.00014927 -0.00022063
113 1 22.437068 2.849041 27.120015 0.07216682 0.02416167 -0.00270569 0.00015261 -0.00015277 -0.00012831
114 1 17.401827 15.991952 35.313354 -0.04511138 -0.01563980 -0.00090361 0.00003078 -0.00008385 -0.00005909
115 1 18.565968 0.632749 36.257137 -0.02743438 0.00679703 -0.00449383 -0.00008309 -0.00000016 -0.00005814
116 1 0.461341 20.242414 23.934064 0.02592144 -0.02515079 0.01553375 0.00003770 -0.00013158 0.00004442
117 1 33.789049 25.657182 30.640459 0.01851391 0.00887662 -0.00780846 -1.00461326 16.90222586 -13.38835646
118 1 29.083749 8.066258 26.460111 0.02119762 -0.01925295 -0.06009657 -0.00019235 0.00008857 -0.00027922
119 1 24.084602 9.215974 4.847689 -0.01243402 0.00089608 -0.02652059 23705.85441325 -3360.75508780 -25151.37242019
120 1 28.393102 36.684197 27.894717 -0.00313164 -0.05895783 0.01975049 0.00020516 0.00030636 0.00036767
121 1 28.310394 6.297246 9.332491 0.01896241 -0.00087359 0.04070659 -101.76207771 -50.98505281 140.94783926
122 1 22.127125 1.187297 25.230722 -0.02952165 0.02531579 0.01257768 -0.00017489 -0.00009407 0.00005568
123 1 5.470230 15.616006 12.095074 -0.01396111 -0.00520766 -0.00251753 -633.17168178 3031.85201246 7768.97913010
124 1 4.021346 21.863035 13.646026 0.00860798 0.00409972 -0.04410951 -0.00014182 -0.00005286 0.00015550
125 1 1.661528 16.787920 22.296969 0.02629588 0.02908308 0.00429456 733.76036520 -199.70759829 -4427.89630226
126 1 4.926389 22.098086 11.408931 0.03137229 -0.02758830 0.05286245 -0.00056850 0.00004698 0.00004816
127 1 9.808182 30.049298 17.668895 -0.02764396 0.03213955 0.00619779 -0.00104449 0.00161372 0.00103540
128 1 14.276003 30.711839 34.388163 0.01231354 0.04055739 0.02014176 0.00019526 -0.00004419 0.00010564
129 1 11.902252 1.903782 20.425552 -0.02443034 0.01734863 0.06808959 13770283.30347487 12730370.22337574 -23194625.88377102
130 1 27.014859 22.203736 25.991237 0.06040651 0.03277408 0.01514022 -0.00004302 -0.00004487 0.00006054
131 1 24.429944 36.112611 32.709965 -0.02506959 0.01385460 -0.00239063 0.00008605 -0.00004240 -0.00004377
132 1 4.980376 17.097066 17.178836 -0.01738219 -0.00582146 -0.02384792 3.02239918 -7.76238393 6.26435646
133 1 17.237960 35.157248 12.359677 0.07514855 -0.01225691 0.02597490 0.00154966 0.00152373 0.00124537
134 1 23.204102 33.858150 1.909093 0.00036525 -0.04090496 -0.00265062 0.00016544 0.00013239 -0.00009908
135 1 33.187288 28.896249 7.852359 0.00240293 0.04881959 -0.00327942 -0.00024455 -0.00000415 0.00013394
136 1 12.296156 11.732383 8.359831 -0.03269631 -0.03634991 0.03336460 -0.00018036 -0.00016536 -0.00055432
137 1 24.120081 37.126240 6.293744 -0.02044240 0.00311456 -0.05485155 -0.00002029 -0.00000764 0.00014214
138 1 8.770911 10.968854 35.416652 0.05411660 -0.03057491 0.02940683 -0.00004177 0.00012680 -0.00001496
139 1 23.640347 8.033522 30.370606 0.03522246 0.06843213 -0.03275210 -67.83666609 -507.32584261 373.90552607
140 1 34.861423 15.239988 6.528141 0.00228961 0.09490836 -0.01896306 -0.00010370 0.00021219 0.00003262
141 1 11.707067 8.201488 7.608885 -0.00228289 0.02494627 0.03075006 -0.00003827 -0.00005523 0.00012529
142 1 6.451527 33.092618 3.244411 0.06210998 -0.01670687 -0.01613322 0.00018262 -0.00004316 0.00000912
143 1 15.614237 0.556616 11.082978 0.00526928 0.05469384 -0.01912648 -0.00097496 -0.00111382 -0.00068102
144 1 26.704405 7.662100 37.726912 -0.00974025 -0.01740847 -0.00626920 -0.00010754 -0.00014317 -0.00000422
145 1 1.824499 5.155657 29.724349 -0.01597540 0.01269905 -0.00772093 -0.00007199 0.00007854 0.00003715
146 1 36.868240 36.037745 30.153301 0.03340665 0.00039767 -0.05796963 -0.00007125 -0.00001549 -0.00006254
147 1 36.754470 31.760926 2.191881 0.05050303 0.02642884 0.03835113 -0.00009154 -0.00014296 -0.00014385
148 1 31.943744 18.274738 17.253807 -0.00891077 0.06637287 0.02440426 -0.00005786 0.00000765 0.00005270
149 1 0.095469 23.430152 25.369950 0.02446200 -0.06934874 -0.00548193 0.00008017 -0.00004634 -0.00008413
150 1 29.869196 12.312841 4.840234 0.02079093 0.00999205 -0.01786386 0.00015247 0.00005171 -0.00029791
151 1 16.615301 13.685390 28.449532 -0.08818452 0.00606706 0.01052733 -0.00006842 -0.00011007 0.00005076
152 1 8.667027 5.219395 16.627962 0.04703816 0.02077570 0.00640619 -0.00009543 -0.00003260 -0.00015752
153 1 23.722244 10.614657 4.322701 0.00409605 0.00557218 -0.01446875 29.03151355 -112.05960754 42.06093032
154 1 16.587577 36.334820 36.540207 -0.01361692 0.00665871 0.04095410 0.00005743 0.00010350 0.00006562
155 1 26.770529 29.356892 7.687575 0.02569782 0.01663220 -0.04646484 0.00002068 0.00016773 0.00013243
156 1 14.152514 22.844527 28.346912 0.03108196 0.01281571 0.08029265 0.00000626 0.00010093 0.00006512
157 1 6.294240 17.286866 6.148030 0.00301413 0.02366568 0.01645805 -0.00005699 0.00016110 0.00005845
158 1 23.925056 29.168350 31.478144 -0.00047149 0.00099981 -0.01443059 0.00161329 0.00047831 -0.00106783
159 1 27.665020 6.011692 31.293178 0.02044955 -0.03978191 0.09131390 0.00105790 -0.00013556 -0.00009688
160 1 12.632452 31.570989 9.477746 -0.00247143 -0.01527163 -0.00477977 -0.00067008 -0.00054584 -0.00023784
161 1 17.969643 21.779939 1.311603 0.03221067 0.02424458 0.00053578 0.00007309 0.00019929 -0.00009793
162 1 34.136971 19.323496 7.254359 -0.01185613 -0.03212218 0.00007402 0.00004259 0.00000512 0.00018682
163 1 6.074654 25.934291 3.087460 0.01338592 -0.06795016 0.03250972 0.00012270 0.00014339 -0.00000297
164 1 16.614221 20.408890 8.806503 0.01843780 -0.00838182 0.00252151 -0.00094475 0.00025649 0.00052072
165 1 4.880511 18.536390 12.855847 -0.02607712 0.00544801 -0.06420858 0.00029054 -0.00157450 -0.00126599
166 1 5.297613 7.946842 17.789699 0.03360777 -0.00503867 -0.05888106 0.00010825 0.00001838 0.00005874
167 1 5.025965 35.361814 29.292766 0.03597529 -0.01291019 -0.01580614 0.00016988 -0.00007763 -0.00020828
168 1 12.297915 9.759363 33.026425 -0.01189982 -0.01585044 0.02081627 -0.00005861 0.00017300 0.00000084
169 1 16.127164 32.589079 28.046215 -0.00295117 -0.01221457 -0.00876470 -0.00001896 -0.00005167 -0.00000064
170 1 3.479748 30.733807 20.393952 0.04104417 -0.01995779 -0.00131852 -0.00005705 -0.00004919 0.00010463
171 1 25.596277 8.272872 0.010221 -0.03067245 0.04141869 -0.01966611 0.00037049 -0.00013914 -0.00033615
172 1 12.605034 7.200929 16.440260 0.05050063 0.07966340 0.02394098 -0.00008726 0.00018633 0.00007536
173 1 3.433656 33.810284 4.484782 -0.02012204 -0.02960973 0.03942428 0.00014024 0.00021836 -0.00006446
174 1 28.867009 35.482890 5.599315 0.01044616 0.00094357 0.01801423 0.00000412 -0.00000391 -0.00021606
175 1 13.088126 27.615812 26.988733 -0.02885762 -0.00575171 -0.02946152 0.00007958 -0.00000072 0.00001068
176 1 1.412594 2.670461 4.538263 0.01298381 0.02277758 0.03725416 0.00001030 0.00009401 -0.00022326
177 1 21.456969 2.079248 22.227127 -0.01897511 0.03429700 -0.05422413 0.00104892 -0.00025166 0.00066134
178 1 12.936467 25.286912 29.541570 -0.03367959 0.02191688 0.01889720 -0.00007630 0.00012509 0.00000502
179 1 29.895030 1.421652 35.780208 0.01443732 -0.04972509 0.03538491 0.00000594 0.00015905 -0.00005748
180 1 22.160504 33.834943 23.237047 0.01144893 0.00740366 0.02500787 -0.00024527 0.00007533 0.00006738
181 1 18.287472 27.565425 8.288616 -0.01257042 0.04052134 0.01019929 0.00013552 -0.00012285 -0.00000544
182 1 3.899360 3.418561 32.076030 0.01393495 0.02673237 -0.05265047 -2307.47793890 -3584.04470836 -825.62591239
183 1 34.467510 30.764407 34.164889 -0.01287145 -0.01057556 -0.02021805 -0.00003203 0.00002173 0.00017748
184 1 37.199805 19.871821 5.812823 0.01019188 -0.01084743 0.02856550 0.00005672 0.00004444 -0.00001820
185 1 22.964363 13.368283 13.087061 0.00956817 -0.02144897 0.00866296 -0.00008919 0.00002227 0.00014182
186 1 27.492878 3.424321 1.417749 -0.03197485 -0.03756626 -0.00760070 -0.00007464 0.00002634 -0.00005660
187 1 26.263923 9.849041 14.562269 0.01841002 0.02008700 0.02112606 -0.00012996 0.00001983 0.00010790
188 1 11.620805 23.225565 5.836809 -0.01684052 -0.01786923 -0.07764829 0.00012913 0.00002651 -0.00046689
189 1 27.220141 34.939023 31.583922 -0.04543032 0.05534540 0.00310485 0.00002060 0.00006250 0.00002300
190 1 34.263230 35.397757 14.064886 -0.01387239 0.02791782 0.01559786 -0.00000729 0.00014867 0.00016209
191 1 30.059005 18.691988 10.190654 0.01102620 -0.01257563 -0.00217940 0.00015748 0.00006329 0.00009698
192 1 28.213393 9.221932 4.140905 0.02126888 0.03339127 -0.00329496 0.00109198 -0.00015969 -0.00030499
193 1 26.616933 10.862362 11.556051 0.02107994 -0.05313904 -0.02455946 -0.00103733 0.00081328 0.00057170
194 1 33.284326 5.119981 28.891981 -0.01053763 -0.03432344 -0.01484573 0.00004270 0.00010220 -0.00006528
195 1 14.589140 33.733376 16.633958 0.08498743 0.05984356 -0.04033813 -0.00001317 0.00003745 0.00004213
196 1 15.450799 16.238149 31.643673 -0.00775295 -0.01085635 -0.02052670 0.00003989 0.00000548 -0.00020366
197 1 0.397022 26.626130 7.752932 -0.04291997 -0.00399776 -0.02589528 0.09347130 0.02084727 0.00288687
198 1 33.322203 14.200592 12.804013 -0.04177444 -0.02145126 0.03730473 0.00022535 0.00012699 0.00004361
199 1 26.919314 27.290439 23.938369 -0.01652751 -0.01716098 0.00063772 -566837.07658804 -391932.44365294 -86542.25053911
200 1 12.458473 23.056025 2.049890 0.03452462 -0.04547116 0.01945524 0.34382873 1.07696433 0.54236288
201 1 36.081821 17.101143 11.501616 0.00618501 0.02829064 0.01970717 -0.00014658 0.00004991 0.00013230
202 1 32.515839 12.245564 37.668126 0.06100228 -0.01860219 -0.02829105 -0.00002853 0.00010956 -0.00008594
203 1 26.087328 24.537745 5.736366 -0.02108546 0.00878937 0.03710015 -0.00001521 0.00002310 -0.00001411
204 1 23.037502 5.859829 29.600568 0.04589561 -0.01913841 0.05686131 -31.17587530 6.76318946 -46.00329414
205 1 5.228137 13.554869 18.008533 0.00794556 -0.00195812 -0.00198450 1394724.58570275 3708872.95260844 1314101.64498046
206 1 30.416106 23.902453 28.254392 0.04323896 -0.02911200 0.01188928 -0.00059802 -0.00054182 -0.00036516
207 1 9.216097 8.962603 14.377880 0.00549108 -0.04262875 -0.08382355 -4.07126444 0.20036681 2.53984560
208 1 0.705668 31.379765 13.975529 0.00340369 -0.03954453 -0.00882170 0.00019193 -0.00006878 0.00010142
209 1 2.551832 32.947851 36.559545 -0.00161851 -0.05427908 -0.00589485 0.00005986 -0.00003303 -0.00013330
210 1 24.424666 13.470086 15.629629 -0.01745816 -0.01781585 -0.01585956 -0.00002002 -0.00018189 -0.00006985
211 1 9.676254 26.868355 13.450587 -0.01267908 -0.03420531 0.12576262 0.00407971 0.00206071 0.00823783
212 1 1.227072 1.743772 23.222103 -0.05487891 0.01314916 -0.01034683 39.90760565 -447.89403762 -1696.04107174
213 1 10.969227 6.368532 20.865534 -0.02551103 0.01877825 0.03412035 -0.00006506 0.00055988 0.00001827
214 1 10.517911 2.770233 7.312555 0.00512165 0.00461982 0.00694393 -0.00014894 0.00005856 0.00015143
215 1 29.385348 32.184647 32.945289 -0.00738056 0.02281788 -0.03814199 0.00005740 0.00006462 -0.00005252
216 1 20.203258 35.922083 5.729274 -0.04065493 0.03540701 -0.05694064 0.00006498 -0.00006489 -0.00007363
217 1 25.624836 26.603410 2.009073 -0.00862708 -0.04126730 -0.00614526 0.00000808 -0.00000019 0.00019442
218 1 10.669431 35.850198 28.672240 -0.01875180 0.02993635 0.05578872 0.00008665 0.00001158 0.00017094
219 1 2.066058 20.428433 24.501638 -0.03610947 -0.02728545 -0.01632025 0.00034624 0.00095515 0.00061552
220 1 36.758127 27.063227 24.125089 -0.00655549 0.02799720 -0.03262254 -0.00011112 0.00002256 -0.00009576
221 1 34.319534 24.966839 35.210817 -0.00871121 -0.00773555 -0.01452757 -0.00011275 0.00000023 0.00066428
222 1 18.614570 27.143722 23.864469 0.01908301 -0.00781801 -0.05264619 -0.00006709 -0.00018076 -0.00003428
223 1 20.871615 12.242640 34.140139 -0.04347677 -0.00389160 0.05851584 -0.00009201 0.00003859 -0.00014647
224 1 10.200910 6.020920 26.897621 0.01678263 0.03103623 -0.00121712 0.00003890 0.00007394 -0.00011481
225 1 20.645978 9.929535 32.875784 0.00046111 0.00792288 0.00193007 -0.00078933 0.00079462 0.00040853
226 1 10.811443 2.409361 0.580476 0.00622803 0.03495744 0.00272139 0.00006396 0.00001105 -0.00000882
227 1 34.860755 15.192237 8.064522 -0.00294461 0.05191792 0.01626607 0.00012719 0.00011161 0.00003004
228 1 21.422199 18.429832 37.768956 -0.05722053 -0.02641666 -0.04221485 0.00003983 -0.00004582 -0.00000214
229 1 33.563186 10.240862 26.355905 0.01713655 0.04224792 0.02534821 0.00015535 0.00010239 -0.00018722
230 1 14.625485 13.766596 13.867442 -0.00449167 0.05624318 0.00958173 -0.75472573 -0.38014285 -0.46843456
231 1 24.147800 20.322287 28.521935 0.02925588 0.01268723 -0.03518087 0.00012380 0.00004956 -0.00012386
232 1 5.779025 16.070464 32.498617 -0.01268220 0.01602385 0.01111055 -0.00001128 -0.00007937 -0.00011658
233 1 0.119534 23.552357 29.681137 -0.00500907 -0.01335649 0.01904918 0.00067404 -0.00032036 0.00007407
234 1 14.500064 33.378505 27.790680 0.03190095 0.00869273 0.05137232 -0.00003847 -0.00007142 0.00006018
235 1 22.893409 7.491612 25.313109 0.03827726 -0.01452474 0.02516817 -0.00004428 0.00029795 -0.00086431
236 1 31.495459 27.572241 21.715160 0.09141264 -0.02572693 0.01954441 0.00028494 -0.00004471 -0.00026933
237 1 26.993068 36.901868 0.408133 -0.05421401 0.02383941 0.02959096 0.00009663 0.00002058 0.00001535
238 1 25.079837 29.955215 24.134063 -0.00185762 -0.00921610 0.00000313 -0.00101709 0.00104384 0.00038374
239 1 10.316026 31.079578 34.499782 -0.03823765 -0.01060812 -0.00331634 0.00004265 -0.00020516 -0.00004939
240 1 25.819322 19.303888 13.837734 0.02576416 -0.07327835 0.00582611 -0.00009323 0.00004676 -0.00004134
241 1 12.467861 27.319852 22.934025 -0.02718169 0.00144794 0.06493429 -0.00004998 -0.00003301 0.00034454
242 1 5.925015 5.329912 2.685765 -0.01639490 -0.04328498 -0.05151712 -0.00005270 -0.00003394 0.00002257
243 1 25.819594 11.875082 0.764657 0.00431422 0.03974477 -0.05324719 0.00014698 0.00027592 -0.00018198
244 1 12.756309 31.433123 9.355427 0.02296953 -0.02162029 -0.00082500 -0.00052401 -0.00029118 -0.00036014
245 1 23.932265 16.608535 20.734487 0.04318524 -0.00994446 0.01540308 0.00006221 0.00011940 0.00011946
246 1 22.505254 17.180439 2.185499 -0.01971659 -0.00909500 -0.00241894 -0.00010412 -0.00010355 -0.00020656
247 1 21.444637 15.016460 7.550443 -0.00780602 -0.06692555 0.00343492 -0.00011953 -0.00047017 0.00029355
248 1 33.865507 27.804864 10.730649 0.01901992 0.00448202 0.02818182 -0.00010620 -0.00005799 0.00025312
249 1 20.359053 36.381503 9.272286 0.00974959 -0.04462011 -0.01316946 -0.00000430 -0.00002898 0.00012269
250 1 35.787353 25.813906 20.430050 -0.03123609 -0.08382033 0.03307295 -0.00010731 0.00001617 -0.00002389
251 1 37.140572 12.605819 10.510155 0.09241735 -0.02165519 0.00636528 0.00019660 -0.00006173 -0.00014188
252 1 12.828102 28.363601 12.730388 -0.02945220 0.00712998 0.03929414 0.00079530 0.00029457 -0.00158103
253 1 3.881838 24.338825 8.423183 0.01614352 0.03235233 0.04760187 -73.21057442 -25.98299657 12.35290335
254 1 0.157260 7.523152 30.943136 0.05559083 0.01019319 -0.02736429 -2678.54524167 73646.84637677 23273.87064645
255 1 35.517778 25.005200 11.728720 -0.02066743 -0.00478989 -0.00877015 0.00008018 -0.00015646 0.00001386
256 1 16.488643 7.349059 33.271297 -0.04501664 -0.00058996 0.00419473 0.00004737 -0.00005123 0.00003523
257 1 25.142277 3.188677 13.860883 -0.02889098 -0.00186413 -0.03760054 -0.00006014 0.00000766 -0.00006147
258 1 20.323749 30.119064 34.771969 0.00786500 -0.02644829 0.01043565 0.49648221 -1.40013872 -0.77316731
259 1 5.011725 31.525252 2.484976 0.01943578 0.02577564 0.05687543 0.00000432 0.00018001 -0.00029520
260 1 9.084503 0.793737 2.411111 0.01505858 -0.00132758 0.02978760 -0.00006632 0.00024440 0.00000289
261 1 1.224669 5.515432 33.110760 -0.05077237 -0.01373471 -0.01549122 -0.00180205 0.00153147 0.00088897
262 1 10.721521 18.121199 18.400772 -0.02503756 -0.00685028 0.06717447 -9.39705031 2.61536166 13.30568182
263 1 37.595957 13.775482 10.014100 -0.00720809 0.01642397 -0.02656424 0.00007506 -0.00021000 0.00002302
264 1 36.386472 22.382597 10.935132 -0.02433264 -0.02966117 -0.02382163 -23479979.66417478 3717063.20611320 7349774.13743412
265 1 10.859752 3.262343 21.035657 0.04812242 -0.01256552 -0.02447194 47338.68098036 -80437.50044743 110982.76598874
266 1 27.337237 17.932266 33.409514 0.01477476 0.00335339 0.05464515 -0.00000694 -0.00001072 -0.00007953
267 1 18.281721 13.083651 9.473297 0.01154295 0.04545456 -0.03734496 0.00012563 -0.00006799 -0.00010064
268 1 9.190381 11.956283 37.471752 -0.00328053 0.02337937 -0.02173701 -0.00014554 -0.00009251 0.00004226
269 1 13.630186 19.816708 10.375825 0.00295510 -0.03792792 -0.00172416 0.00030989 -0.00009604 -0.00001081
270 1 5.422053 24.396293 20.595632 -0.04698788 -0.02483994 -0.04091812 18.69846461 -507.05278582 -994.49961503
271 1 2.562135 33.347187 19.178691 -0.00715547 0.01680924 -0.04419296 0.00009362 -0.00012757 -0.00011297
272 1 12.666671 29.440210 4.234197 0.01525407 -0.01951581 -0.06835059 -2686.08611315 2760.95423432 244.82814261
273 1 17.896999 20.729826 29.280268 0.02423752 0.01226178 -0.01228600 0.00002307 -0.00008341 -0.00005155
274 1 13.985953 32.296179 26.354524 0.02759824 0.06716901 0.00350861 -0.00006572 0.00012954 0.00013907
275 1 29.127294 36.606810 31.910482 0.03777081 -0.05250934 0.01282126 -7.82242592 -11.26033521 -3.11771025
276 1 13.099896 24.395448 32.811715 0.01500189 0.01443350 -0.04531194 0.00012143 -0.00001528 -0.00005039
277 1 19.836415 25.792696 6.507149 -0.01775389 0.01011367 -0.00233236 -0.00001842 -0.00001966 -0.00004634
278 1 30.821080 28.612999 33.577877 -0.01126107 0.02104945 -0.02218677 1631.69081989 -2105.79645891 -1290.25999539
279 1 26.825798 33.124832 6.127697 -0.01276896 0.01834954 0.03639449 -0.00007406 -0.00007867 0.00000127
280 1 30.735447 35.998242 30.805723 0.00953134 0.05167757 0.05054981 -2.24090751 0.84807358 1.53938894
281 1 23.240173 34.998448 3.569211 0.05701790 -0.03246781 -0.00297882 0.00008161 0.00007439 -0.00001147
282 1 0.637058 36.464874 25.800452 0.00435080 -0.03234104 -0.00637353 -0.00020012 -0.00112309 0.00083603
283 1 4.312626 12.843930 28.285923 -0.02215433 -0.06905895 -0.03401275 0.00004666 -0.00002549 0.00019047
284 1 28.345815 6.421413 17.759781 0.00086201 0.05462410 -0.04206886 -0.00073495 -0.00074295 -0.00029976