ITEM: TIMESTEP
0
ITEM: NUMBER OF ATOMS
2511
ITEM: BOX BOUNDS pp pp pp
0.0 33.115713
0.0 33.115713
0.0 33.115713
ITEM: ATOMS id type x y z vx vy vz fx fy fz
1 1 9.565126 22.499194 30.538110 0.04243828 -0.00927514 -0.01044900 0.00003613 -0.00012058 0.00000054
2 1 6.692264 29.576975 5.044750 0.03258126 0.07257447 -0.05764911 0.00016321 -0.00000362 -0.00014109
3 1 0.975513 12.606701 24.594742 0.02933318 -0.00168169 0.02641238 0.00007611 0.00014655 0.00007317
4 1 2.100573 19.603967 25.899525 -0.00500334 0.00879465 -0.02163690 -0.00005718 -0.00012096 0.00003450
5 1 31.539384 1.041372 4.537719 -0.01776727 0.01999506 -0.01172698 612.86726594 311.88018059 412.80863777
6 1 33.068071 8.422937 3.687559 -0.05654024 -0.00473762 -0.00032036 0.00001074 0.00004840 0.00000801
7 1 16.379073 29.155958 0.109119 0.05674259 0.02218751 0.01754621 0.00009348 0.00001443 -0.00005372
8 1 25.309045 28.506306 13.840899 0.01406264 0.02184990 0.01414747 0.00005904 -0.00001268 0.00015698
9 1 19.274514 29.932095 26.377398 -0.04059797 -0.01486902 0.04376243 -0.00014525 -0.00015098 -0.00005170
10 1 14.582461 26.858006 16.513255 0.00425724 -0.01458596 0.00386179 -0.00001469 0.00002456 0.00008680
11 1 17.510217 27.783633 7.636496 -0.01740355 0.01466113 -0.01041961 -0.00007106 -0.00004552 0.00016429
12 1 26.362098 29.345889 5.772215 0.02442684 0.04375181 -0.00554823 0.00002317 0.00003517 -0.00009240
13 1 23.764320 24.699703 19.444134 -0.01032323 -0.04107018 -0.01053753 0.00004398 -0.00010354 0.00004222
14 1 9.934615 25.278860 0.987691 -0.01328283 0.02949690 -0.00575674 0.00006463 0.00004683 -0.00002218
15 1 3.997980 19.302292 17.717689 -0.01228519 0.02352103 0.02343493 -15164.78820589 -20292357.71519294 -6305464.40499592
16 1 15.882038 3.063672 13.631458 -0.03652825 0.01031877 -0.07089088 -0.00005951 -0.00001725 -0.00003717
17 1 22.675595 12.135997 2.133362 -0.01199612 0.05008218 0.02739388 0.00000101 0.00007143 -0.00004449
18 1 11.415354 28.154398 12.818747 -0.01102135 0.02518480 -0.02199188 0.00013334 -0.00004106 -0.00009912
19 1 3.543360 26.515795 23.246127 -0.02466437 -0.06499263 -0.01386959 -0.00000108 0.00007971 -0.00008618
20 1 11.057075 22.763128 22.895605 -0.02116064 0.05056768 -0.00134194 -230511.92571806 241651.74685461 131639.29254736
21 1 2.959814 7.935536 32.662926 0.03314099 0.00196065 0.04796501 0.00011659 -0.00000594 0.00007280
22 1 28.100390 3.879865 1.987340 0.03819647 -0.02197094 -0.00226609 -0.00023984 0.00017658 -0.00025652
23 1 26.106141 11.621783 2.712850 0.05249673 -0.02241377 0.07594016 -0.00017388 -0.00004647 0.00008948
24 1 20.254325 18.285830 1.819291 0.02569415 0.03750651 -0.01414023 -0.00015803 0.00000719 -0.00004703
25 1 5.576075 6.399195 30.201001 0.01497993 0.07812031 -0.02734681 -0.00014352 0.00008066 0.00010027
26 1 20.389714 17.720566 32.683897 0.03914723 -0.01845581 -0.03766389 42447.75389840 136590.12160483 -42657.96378210
27 1 0.289716 1.610664 24.331913 -0.00430078 0.01491172 -0.04217570 0.00007160 0.00008765 -0.00007664
28 1 9.992159 28.554838 11.556207 -0.01176836 -0.01476456 -0.00956908 -0.00003523 -0.00018719 0.00006880
29 1 2.066959 17.501261 29.127178 -0.00209381 0.01569297 0.04661345 -505.78085049 -5453.19393385 924.82025768
30 1 4.960055 8.240162 25.330540 0.01857702 0.04760549 -0.01641278 0.00004039 0.00000559 -0.00007132
31 1 32.626786 30.854103 17.131113 -0.01556850 0.04342519 -0.00292740 0.00003154 0.00005365 0.00010517
32 1 30.832847 14.533472 0.840506 0.01815265 -0.00221608 0.05711707 -153.18957758 25.42533136 46.92392831
33 1 1.533806 16.870436 4.320245 0.01046737 -0.04557295 0.01584063 0.00013551 0.00009093 -0.00012273
34 1 31.669830 0.376698 31.051431 0.00117277 0.00531260 0.02555525 0.00009231 0.00003465 -0.00013426
35 1 26.183358 4.711568 19.817492 0.01808067 -0.01883734 -0.02586359 1569.60450316 501.95622293 -241.41047714
36 1 19.376210 11.634107 31.059865 -0.08207511 -0.02511261 0.04338091 -0.00019900 0.00004935 -0.00005789
37 1 17.548196 32.682335 7.569329 -0.04731341 0.02595351 -0.05445645 -0.00000416 -0.00020735 0.00012342
38 1 6.027607 3.597017 21.281318 0.01841639 0.01072237 0.00412348 -0.00010958 0.00004365 0.00012338
39 1 2.521197 32.255475 15.634262 0.03951750 0.00771919 -0.00430937 -0.00013570 0.00013277 -0.00004399
40 1 31.133019 26.054620 9.471657 -0.02285602 0.04717501 -0.05860384 -0.00002307 -0.00017690 -0.00013456
41 1 3.010746 17.293553 5.350494 -0.00107857 -0.01805777 -0.07892738 -0.00002871 0.00008379 -0.00005782
42 1 28.430548 5.999173 32.209158 -0.02474698 -0.00327242 -0.00211557 0.00012360 -0.00012034 0.00013063
43 1 33.075468 14.205044 27.865025 -0.03305784 0.02601167 0.01652694 -0.00074790 -0.00095916 -0.00058500
44 1 14.287419 32.236261 16.454907 -0.03136487 0.01913812 0.00122164 -0.00000400 0.00004615 0.00000406
45 1 2.765730 3.447669 2.870804 -0.05904197 0.06571508 0.01773749 0.00040655 0.00021883 -0.00014485
46 1 21.877478 0.785045 18.406259 0.02807896 0.03728469 0.00178189 -0.00014743 0.00003330 0.00005737
47 1 29.349724 18.402118 25.825116 -0.00951975 0.02193307 0.01833341 -0.00010049 0.00010356 -0.00007391
48 1 5.365527 29.632277 25.563948 0.00209218 0.01869249 -0.02992734 -0.00008194 0.00020099 0.00013093
49 1 4.202395 29.871639 13.144750 0.02725707 -0.01248966 0.00337171 0.00014719 0.00017218 -0.00011130
50 1 4.940229 13.631042 20.341501 -0.00345442 0.00466018 0.02690887 -379085.54322832 449703.83522616 -1213284.70891535
51 1 2.146942 3.531286 14.878228 -0.01870809 0.02411263 -0.00869525 0.00002484 0.00000453 0.00007051
52 1 11.032474 25.300028 5.492652 0.01106575 -0.06942391 0.00059916 0.00001285 0.00002861 0.00001087
53 1 31.272161 6.882002 32.260595 0.01590754 0.01344674 -0.00790753 -0.00001880 0.00004853 -0.00011294
54 1 20.991747 14.302810 5.253531 0.04044750 -0.03478266 -0.03036476 -0.00004677 0.00012239 0.00018305
55 1 1.146766 10.887911 0.031717 0.00899918 -0.01852579 0.00799766 0.00034641 -0.00036389 -0.00002491
56 1 22.259068 8.078733 27.997827 -0.04701498 -0.02090617 -0.06698468 0.00004581 -0.00000018 0.00008588
57 1 19.084935 4.066570 14.302586 -0.05741468 -0.02773360 -0.01391903 0.00008544 -0.00011843 0.00008940
58 1 24.413889 6.925352 24.781099 -0.00618926 0.02055678 0.01303524 0.00002362 0.00032856 0.00014210
59 1 12.673731 31.525447 20.385126 -0.04426909 -0.06272273 0.03034168 -0.00007947 0.00000830 0.00003123
60 1 10.092454 28.990628 22.415537 0.00551652 -0.04986136 0.02780341 -0.00009897 0.00011734 0.00008240
61 1 4.538996 2.484240 3.392843 0.04838475 0.01449735 -0.00651385 113.03591818 129.68179541 73.76883994
62 1 10.743049 31.190718 16.337888 0.01863058 0.01016454 0.05403143 0.00010204 0.00005384 0.00005645
63 1 30.296436 0.071639 9.005270 -0.05268258 0.03385717 -0.00321501 -0.00015030 -0.00008502 0.00064926
64 1 28.245034 12.493799 0.611578 -0.01606337 -0.02109827 0.07214110 -0.00158818 -0.00135185 -0.00030202
65 1 23.060383 25.676114 27.712864 -0.03347063 0.01816014 -0.03574718 0.00013128 -0.00000594 -0.00017322
66 1 25.220983 12.602579 10.075318 -0.06835369 0.00050243 0.00466983 0.00008679 -0.00005695 -0.00004941
67 1 27.763136 4.274836 5.607716 0.00499991 -0.03120074 0.02458800 -0.00037087 0.00029245 0.00002918
68 1 2.714913 6.380587 25.377933 -0.01742377 -0.02713117 -0.01962329 0.00012476 0.00010103 -0.00002969
69 1 17.551117 17.628967 16.158225 0.00867727 -0.05796327 0.02425617 0.00010256 -0.00014344 -0.00008484
70 1 5.979349 24.618204 30.531589 -0.06623586 -0.03637428 -0.00022032 -0.00005342 0.00000126 0.00004193
71 1 7.865701 7.670698 5.246170 0.05779118 0.01718645 0.00776226 0.00006525 0.00014523 0.00006988
72 1 15.286903 7.670838 23.582296 -0.01741180 0.02046633 -0.03447065 0.00000809 0.00005062 -0.00010793
73 1 7.276128 14.486776 18.496579 -0.01282880 0.00090562 0.03330211 -43.35872628 34.40556636 59.73013725
74 1 22.529025 7.775653 17.179221 -0.02317512 0.00098593 0.01320191 -0.00012419 -0.00001457 -0.00026258
75 1 25.593019 27.484905 16.015945 0.00312894 -0.01889535 -0.02695321 -0.00011570 -0.00022754 -0.00008090
76 1 7.641705 20.927435 12.401183 0.01509246 -0.00254229 0.01594770 -0.00010773 0.00021363 -0.00006190
77 1 6.341909 17.289636 17.373356 0.00257623 0.03438159 0.00695625 -0.00063428 0.00122230 -0.00027023
78 1 27.239634 9.386937 17.074520 -0.02025221 0.01283139 -0.03754154 0.00006771 0.00019531 -0.00012123
79 1 14.809404 26.038421 20.663361 -0.01111374 0.02634826 0.03641433 0.00018289 0.00004399 -0.00001075
80 1 22.688609 20.793012 31.290705 0.00294865 0.01100782 -0.00018853 0.00095076 0.00106046 -0.00064870
81 1 3.896713 10.394758 14.292099 -0.05719304 -0.02263117 0.00499497 0.00005789 -0.00000976 -0.00008793
82 1 16.661894 31.009799 13.877739 0.01056285 0.00255198 -0.02815370 0.00000395 0.00012286 0.00007142
83 1 4.799165 3.161508 9.410144 0.02722729 0.02008519 0.03725324 -0.00006392 -0.00006784 0.00009292
84 1 23.000899 1.469553 18.943502 -0.04578677 0.06142292 -0.04291382 -0.00038689 -0.00062760 -0.00010869
85 1 32.014645 31.794344 26.297212 -0.00417248 0.01291500 0.02751057 -0.00002310 0.00007121 -0.00003874
86 1 4.678372 11.221019 32.201861 0.00312907 0.04438624 -0.02644821 -0.00001624 -0.00000285 0.00011401
87 1 3.268066 7.989610 25.504556 -0.04013109 -0.04743427 -0.00942950 0.00016172 -0.00008033 0.00003854
88 1 30.232775 5.548980 7.178218 0.01848827 -0.03299706 0.01884196 -0.00005053 0.00026801 -0.00000422
89 1 28.614245 4.992823 3.368645 -0.01782491 0.03952526 -0.01774805 -0.00030806 0.00014518 -0.00001347
90 1 24.535609 32.871361 32.419512 0.04351174 0.04077704 -0.01779988 -0.00019986 -0.00002566 -0.00007913
91 1 2.076216 5.175053 27.346488 -0.01848328 -0.05718177 0.00970367 -0.00000818 0.00003958 0.00006849
92 1 2.100927 3.484961 7.954994 -0.00821730 0.04117699 0.03716791 -0.00012943 0.00006525 0.00045107
93 1 7.935939 2.324775 26.037406 -0.02280986 0.02943306 0.02996325 -0.00007419 0.00002553 0.00027646
94 1 13.398631 30.645506 27.608231 -0.00667318 -0.03909367 -0.01436911 24.83384087 -44.65866239 -45.66111860
95 1 11.182759 20.838222 12.949308 -0.01001649 -0.00449546 0.02948836 0.00006553 0.00006662 -0.00008148
96 1 23.857001 12.939804 24.444259 0.00203252 0.01099930 0.04664279 -0.00012347 0.00001511 -0.00004129
97 1 14.735805 21.249251 15.985407 0.04929663 -0.00478394 -0.00360117 0.00008963 0.00001777 0.00000426
98 1 17.272583 22.196963 20.243200 0.01002577 0.05609445 -0.05103518 -0.00002096 0.00012464 0.00000308
99 1 21.023024 30.262140 25.366216 -0.02966389 0.01274554 0.00307046 -250130.37932706 -397150.16822753 -373152.15995097
100 1 27.455016 18.836182 7.511395 0.03274024 -0.06210798 0.02704449 -224.69242811 2350.37647335 -429.41028938
101 1 32.545393 1.745025 13.382640 -0.00602852 0.06974542 -0.00529338 -0.00009015 -0.00006487 -0.00006393
102 1 30.354515 9.072498 24.569972 0.03623618 -0.07214230 0.01753714 0.00001763 -0.00004379 -0.00014583
103 1 2.612322 23.301552 23.782206 -0.00262607 -0.02784050 -0.01627147 0.00011270 0.00009228 0.00008692
104 1 9.043250 27.391799 30.877667 -0.02365175 0.02750066 -0.01085210 3639.54363040 4592.86431765 7587.40658059
105 1 17.374199 0.194005 30.953136 0.01991735 -0.01856857 0.05861429 0.00018460 0.00000621 0.00010055
106 1 22.088816 26.720533 5.141179 -0.01072558 -0.04164378 0.00278481 0.00004142 -0.00011891 0.00007349
107 1 23.288156 0.792383 12.503207 0.01846256 0.07816100 -0.00589878 0.00000725 0.00003277 -0.00015916
108 1 7.890405 22.606514 12.690791 0.03344276 -0.02673049 0.04693177 -0.00006934 -0.00016201 0.00000185
109 1 8.464126 8.324229 28.402728 -0.01739381 0.01255639 0.00482159 0.00002233 0.00010267 0.00001820
110 1 2.594074 23.912790 13.804637 -0.04157400 -0.00383774 -0.02695532 -0.00004864 0.00000696 -0.00025844
111 1 25.830092 29.330573 9.990509 -0.03819933 -0.04258331 0.00016282 -0.00000977 -0.00008158 0.00002440
112 1 4.900693 25.026432 23.399867 -0.01981346 0.02867637 -0.04020915 -0.00011057 0.00015006 -0.00012997
113 1 22.443280 15.345342 33.024995 0.02962547 -0.04221152 0.01209126 0.00015348 -0.00029376 0.00001367
114 1 31.867268 2.436262 32.108113 0.01777727 0.00976124 0.01701822 -0.00002512 0.00014487 -0.00017112
115 1 16.902486 8.630754 31.533537 -0.01491627 -0.02345340 0.01127219 -0.00007074 0.00010066 -0.00014585
116 1 12.025112 31.278078 18.689504 0.02208887 -0.03657342 0.00999051 0.00001287 0.00003061 -0.00006864
117 1 22.665566 22.035028 19.814788 0.02344822 -0.02080122 -0.03160997 -0.00014422 -0.00004629 0.00005762
118 1 9.411172 6.922409 16.483866 -0.05197493 0.00368694 -0.04119834 -0.00022172 0.00005458 -0.00004713
119 1 17.128952 12.423413 32.983430 -0.00373206 0.00857725 0.08508355 -0.00032576 -0.00019646 0.00011816
120 1 21.288927 13.657850 21.380958 -0.05261029 0.00210666 0.03787066 -0.00000787 0.00004378 0.00006773
121 1 28.737894 31.749819 22.668663 -0.00777556 -0.00181097 0.05009862 0.00000790 0.00008388 0.00004941
122 1 30.111479 5.450048 20.492417 -0.02072831 -0.01802586 0.03110654 0.00142149 0.00029135 0.00024853
123 1 31.173344 20.619287 18.818060 0.03683458 0.03224706 0.06010672 -0.00008157 0.00008749 0.00007223
124 1 5.473124 28.476527 32.482630 -0.03197312 0.01258107 0.01535610 -0.00119749 0.00033999 0.00067033
125 1 2.399482 28.045751 4.073128 0.04763893 0.02439515 -0.01165047 -1.31368512 -1.15932384 -2.10444379
126 1 17.260462 20.056750 23.426319 -0.05992478 -0.02091985 0.00968305 -0.00001021 -0.00002407 0.00007507
127 1 21.959518 8.134360 22.033220 -0.01793841 0.04324460 0.01764543 -2220.35951662 4136.90070368 -912.36025634
128 1 25.597234 21.537900 16.086561 -0.00358692 0.01244432 -0.01046312 0.00003791 -0.00010444 0.00007193
129 1 30.443900 2.293445 28.532415 -0.01375098 0.00070153 0.00986925 0.00001590 -0.00009266 -0.00003937
130 1 31.107951 4.766674 16.106466 0.00228579 -0.04979117 -0.02491138 -2739.75766956 9018.51798645 13154.19513213
131 1 5.060988 18.193409 10.587657 -0.06222233 -0.01909962 0.01664819 0.00004703 0.00004312 -0.00019489
132 1 0.918851 19.340972 23.823401 0.01059976 -0.01865522 -0.04734982 0.00009360 0.00014669 -0.00004440
133 1 9.121091 4.154927 21.625783 -0.05489457 -0.01996977 0.01455823 -0.00011599 0.00001864 -0.00001877
134 1 22.579237 10.287529 4.240961 0.06934983 -0.02167983 -0.00852559 -0.00019491 -0.00003815 -0.00015155
135 1 13.304811 23.850221 27.913997 -0.00065819 -0.01870572 0.00198907 0.00011065 0.00005134 0.00025001
136 1 16.113501 10.839972 12.326653 -0.04185518 0.03309591 0.00143260 1010.39692236 10752.99587447 -20304.74168152
137 1 16.414832 11.167762 14.127735 0.03425729 -0.00873937 -0.01348664 -1.68545296 -1.83337046 -10.07419806
138 1 11.971908 28.044415 13.471572 0.00765259 -0.00070439 -0.01767324 -0.00000567 0.00009369 -0.00004154
139 1 7.644045 16.085559 18.231923 0.02115972 0.03223000 0.00003912 -9.82505698 -42.69890476 7.06763135
140 1 2.765662 8.208181 20.770618 0.02809163 -0.00635996 -0.03593814 -20253.72019249 -6414.99101456 -11549.75753675
141 1 8.628807 17.909723 15.610927 0.03165057 0.00908254 0.00517443 0.00057535 0.00032822 -0.00038971
142 1 19.456218 18.505922 18.493155 0.03050215 0.03465272 -0.01451765 -0.00016882 0.00014415 0.00010565
143 1 12.674267 13.117724 5.690866 0.00795784 0.03550026 -0.00509573 -99.56460863 140.45145845 44.26915906
144 1 28.456350 0.904906 25.509322 -0.01531330 -0.03047349 -0.00759647 0.00007064 0.00004306 0.00011167
145 1 1.076940 11.279759 16.350609 0.01923667 0.03731945 0.00830923 0.00009571 -0.00007231 -0.00012811
146 1 18.548149 11.422709 32.706209 -0.05104026 -0.05261583 0.01824640 -0.00005071 -0.00009344 -0.00000197
147 1 0.086711 32.245683 30.849236 -0.00183591 0.00331060 0.04446301 0.00007994 0.00014851 -0.00015576
148 1 12.076613 3.862191 21.296684 -0.08545626 0.02369218 0.01015791 0.00000814 0.00005419 -0.00002455
149 1 23.897840 29.700366 28.751039 0.01299064 0.00137582 0.01335763 0.00046906 -0.00005570 0.00064351
150 1 1.730572 8.319659 14.463707 0.00774320 -0.00304252 -0.01790076 -0.00006603 -0.00010209 -0.00014874
151 1 10.820156 0.992271 10.043282 -0.04449073 -0.04029942 0.05302629 -0.00013865 -0.00001186 0.00017292
152 1 25.668052 14.288494 5.005569 0.03638304 -0.02330074 -0.03150322 0.00011176 -0.00030925 -0.00015672
153 1 1.974285 5.458754 26.147223 0.07273874 -0.00087747 0.03950198 -0.00001018 -0.00009338 0.00006309
154 1 8.816297 11.362752 24.949415 -0.03379271 0.00837125 -0.03153195 0.00019907 -0.00014741 0.00006290
155 1 22.127468 18.889799 2.286705 -0.01498894 -0.04322126 0.03483327 431.93753319 276.52197634 -265.52093259
156 1 3.490959 16.097583 7.720793 -0.05094326 -0.00043170 -0.03447963 -0.00015569 0.00004276 -0.00007520
157 1 26.645190 12.542790 21.367824 -0.01864704 -0.04012990 -0.02836782 -0.00002392 0.00010647 -0.00015278
158 1 9.257187 1.934830 6.184260 -0.02099015 0.02144786 0.00030867 0.00032337 0.00005173 0.00025610
159 1 18.986131 0.649271 29.976398 -0.04212033 -0.05409412 0.02486796 0.00020585 0.00005066 0.00000098
160 1 14.721747 18.539980 2.885188 -0.01803372 -0.01235960 0.01062022 -0.00008204 -0.00003541 -0.00007340
161 1 23.280936 3.612363 21.724072 0.01838011 0.00502102 0.00930291 -0.00161540 -0.00117861 0.00105827
162 1 22.501407 2.156491 20.377009 0.09909874 -0.00332398 -0.04675351 -0.00070975 -0.00043425 0.00005416
163 1 19.052703 10.651259 8.960913 0.05608092 -0.01004626 0.01825513 0.00061617 -0.00003547 -0.00068438
164 1 1.818998 2.450526 32.192457 0.00659647 -0.03053041 0.00235220 -0.00016599 -0.00005908 -0.00036293
165 1 9.340353 4.044538 12.688711 -0.01895016 0.03584762 -0.07916542 0.00000349 0.00000937 -0.00005302
166 1 4.276273 4.817768 0.127094 0.02743999 0.02594353 0.02785445 -16.40642881 -9.34470292 23.19123697
167 1 25.767971 29.213910 21.594076 0.05075587 -0.02015700 -0.03120901 -2911.03412429 938.31119092 5778.03429092
168 1 14.387299 7.826901 17.088751 -0.03668488 -0.06268724 0.03047986 -0.00025770 -0.00003297 0.00006386
169 1 21.344770 13.266127 32.296911 -0.04271016 0.00280567 -0.03041484 6513.51723923 1600.09143735 -517.07838824
170 1 3.154582 16.803717 1.450524 -0.05767577 0.00794007 -0.00872116 0.00007035 -0.00002100 0.00010674
171 1 32.642767 1.795793 6.824877 -0.00488557 -0.00290665 0.03105096 -0.02843308 -0.01921481 -0.05831551
172 1 10.521677 23.324019 23.200170 -0.00136145 0.04648303 0.01868328 230828.40253457 -241741.71508144 -131282.27518041
173 1 18.936458 30.518035 5.471853 0.02203649 0.05395695 0.04841444 0.00022019 0.00016575 0.00001292
174 1 9.172631 5.641867 16.143986 0.03961065 -0.00731089 0.02595806 -0.00005065 0.00012148 0.00012005
175 1 33.098472 24.796817 23.173257 0.00759785 0.00295849 0.00796992 0.00011343 0.00015691 -0.00014403
176 1 5.858240 18.660115 2.808940 -0.00072436 0.00729880 -0.01897862 0.00006349 0.00008243 -0.00008095
177 1 10.368910 11.763027 21.848323 -0.01896385 0.07773493 0.01548204 0.00032395 -0.00013597 0.00016044
178 1 18.716722 11.764613 27.561871 0.00534024 -0.02471199 0.02540258 -0.00017582 0.00006205 0.00006406
179 1 7.582496 25.796108 5.561953 -0.00589427 0.05483036 0.02776738 0.00006451 -0.00013072 0.00000231
180 1 15.876940 28.537986 20.563463 0.00402122 0.00107644 -0.04990259 -0.00002580 -0.00014885 -0.00005417
181 1 32.339353 9.649177 32.193472 -0.03549700 0.00912672 0.02575549 -0.00015422 -0.00019833 -0.00017305
182 1 15.310851 2.716823 17.022665 -0.04182720 -0.01098843 -0.03712693 0.00007226 -0.00001477 -0.00004143
183 1 32.897463 9.228556 15.884236 -0.00291517 -0.00040067 -0.06979433 50.14703314 -138.80872882 399.50341640
184 1 13.283839 14.348011 16.699789 -0.00828027 -0.01091225 0.02912421 0.00003384 0.00003441 0.00021920
185 1 3.951019 12.934754 3.411412 0.01079420 0.04286519 -0.00970791 0.00009681 -0.00009728 0.00000903
186 1 16.112268 32.167280 11.746519 -0.04167968 0.00872990 -0.03159758 -25767.49546580 -28537.46234216 -64329.45654362
187 1 14.845262 27.450237 5.378053 0.00953710 -0.00847677 0.01047615 0.00020851 0.00020405 -0.00016596
188 1 6.964135 10.223409 21.913496 -0.03323519 0.01095733 0.01527416 -247.79978190 269.78512307 3374.54697018
189 1 28.754641 4.405785 9.395134 0.00362780 0.07604474 0.03645051 0.00002891 0.00018937 -0.00005791
190 1 2.692144 23.836588 32.782312 -0.04071455 -0.02538921 -0.00876080 0.00003595 -0.00009028 0.00001221
191 1 28.479706 24.490625 25.216162 -0.00700852 -0.05290732 -0.00850645 -0.00002582 -0.00005661 -0.00003157
192 1 19.290541 20.400660 0.605153 -0.00202618 0.03156467 -0.01050751 36034511.65035192 15209537.28926826 19503077.56984806
193 1 18.510776 6.008664 4.374540 0.00316241 0.00221892 -0.04501202 0.00002755 -0.00011157 0.00011604
194 1 13.399030 1.889002 10.186759 0.03505768 0.03116773 -0.03896342 -0.00073166 0.00072653 -0.00040334
195 1 14.961997 29.944726 0.548607 0.01385279 -0.02409723 -0.04007316 0.00013689 0.00001169 0.00004097
196 1 4.811259 4.555464 29.292839 -0.07536933 -0.04421176 0.01439774 4160.93684010 2225.78897297 4667.37946837
197 1 1.827070 20.498998 21.620977 -0.00490865 -0.01169218 -0.05310028 -0.00038242 0.00012124 0.00059002
198 1 16.651735 23.635402 11.487713 0.01356087 0.05009711 0.02388935 -0.00002015 0.00006002 -0.00017817
199 1 17.213220 10.411581 2.748817 0.04067590 -0.04322524 0.00331800 989.19325467 1092.01174056 1314.63770581
200 1 10.113851 26.267253 29.043583 -0.01091108 0.02517013 -0.03813451 -476.68998354 -238.16968368 67.12088124
201 1 29.642576 21.009908 31.628393 0.00232455 0.02989155 0.00045220 -0.00006528 0.00005949 -0.00005576
202 1 14.957074 0.712375 11.325357 -0.00068463 0.06333691 0.00602324 1.37148267 -1.97201746 0.49992694
203 1 19.857271 31.266924 29.869867 -0.05050441 0.03680748 0.03238900 67.34116746 -571.26802821 493.15391763
204 1 27.943008 13.823220 21.420797 0.04366517 0.01804327 0.01014532 -0.00017993 -0.00001824 0.00002903
205 1 15.789271 31.809430 10.939821 -0.02895020 -0.04777776 -0.05522165 25758.45208529 28537.85688423 64332.78669083
206 1 14.995676 25.935879 30.054617 0.00977101 -0.01291075 -0.00393588 0.00045063 -0.00011140 0.00005270
207 1 29.659596 0.519387 6.172263 -0.02027251 0.00863763 0.04498938 376933.42432921 -522619.63124320 -86372.02362918
208 1 17.470477 14.381326 27.998649 0.01457881 0.01172398 -0.05634655 -0.00003337 0.00002686 -0.00003676
209 1 3.911770 2.565292 26.254483 0.04290957 -0.06095315 -0.00887653 -0.00084012 -0.00111080 -0.00177560
210 1 14.636178 13.387547 16.500310 -0.00680954 -0.04361692 0.03938458 -0.00010241 0.00029973 0.00016618
211 1 29.809207 16.303071 11.306258 0.06355553 -0.00261614 -0.00261758 0.00030296 -0.00018149 0.00029061
212 1 15.188116 1.278260 18.939757 0.01522454 0.01783501 -0.00602534 -0.00009995 0.00002669 -0.00012877
213 1 25.515299 21.930717 16.820613 0.02993390 -0.01922525 0.05844656 0.00009118 0.00000576 -0.00008114
214 1 17.200494 33.023593 14.746730 0.05290585 0.00737718 0.02298308 0.00063856 0.00068818 0.00200415
215 1 15.406077 32.834301 22.358750 -0.00852664 -0.01131462 0.02608209 0.00001001 0.00005438 -0.00001885
216 1 4.370070 11.033678 14.868192 -0.04513058 -0.04422950 0.01852079 0.00009615 0.00001343 -0.00045980
217 1 12.327728 1.135259 0.962234 -0.00537727 -0.01730770 -0.00156417 0.00004113 0.00008333 0.00007840
218 1 0.158868 26.998374 15.260763 0.01674636 -0.02188250 0.05069230 0.00004324 0.00002158 -0.00002699
219 1 8.243861 18.769653 12.168146 0.00315504 -0.01513394 0.05367410 0.00013951 0.00000819 0.00000984
220 1 22.715773 4.366359 3.235339 0.01662073 -0.00012218 -0.04127919 -0.00001212 0.00004897 0.00012063
221 1 8.242425 24.354236 11.351078 0.02532080 0.00858758 -0.01448487 0.00007621 0.00002760 -0.00005147
222 1 11.921125 0.231431 13.856293 0.01591020 -0.04902075 -0.01700786 -0.00044725 0.00013227 0.00022927
223 1 25.428852 7.324721 29.957705 0.03182123 -0.02177528 -0.01595975 -0.00014478 -0.00004812 -0.00008369
224 1 22.068543 22.158203 2.972176 -0.03994977 -0.03178188 -0.05242067 0.00110369 0.00293124 0.00149629
225 1 28.815342 8.368784 17.137362 -0.04342889 -0.01574154 -0.02038433 -0.00130508 0.00081527 0.00033256
226 1 15.803250 10.055933 4.873421 -0.02350552 -0.01356137 0.00825170 -2762.63562796 799.16638161 -461.77420059
227 1 28.306843 26.640872 32.144329 0.01724137 0.00872017 0.08633928 0.00013901 0.00003742 0.00002765
228 1 25.508486 26.000464 5.041074 0.01772270 -0.00072855 -0.03533048 171.30251018 134.27168285 24.96154020
229 1 23.438455 6.425399 18.480902 -0.04507301 -0.01762862 0.01314660 -0.00154533 0.00074916 -0.00211180
230 1 19.012304 4.768305 24.498036 -0.01515709 0.04124849 0.05747437 -0.00015100 -0.00019755 0.00014243
231 1 13.953989 19.930866 16.153154 0.01018897 -0.07261162 0.03868559 0.00018573 -0.00009619 0.00000636
232 1 0.632629 29.877974 26.234387 0.00308479 -0.00129518 -0.02881399 -0.00006586 0.00010980 -0.00005301
233 1 8.213556 2.178322 27.702000 0.02778591 -0.02346426 -0.03615222 0.00085418 -0.00044063 -0.00021369
234 1 28.840943 32.049555 6.565005 -0.03488587 -0.00664964 0.00372678 137.50889502 82.65806977 -51.41902642
235 1 7.696201 1.674252 31.760590 -0.02668206 -0.00027131 0.03665809 0.00087852 -0.00062096 -0.00024132
236 1 7.932005 4.724804 1.120380 0.02553443 -0.00079202 -0.01250961 0.00241734 0.00035785 0.00030329
237 1 16.896705 4.653080 26.439936 0.02728125 -0.02133396 0.02561157 -0.00000209 -0.00005246 0.00001212
238 1 18.705407 25.025147 28.481694 -0.02630475 -0.05328295 0.02381714 -0.00014627 -0.00007116 -0.00002166
239 1 7.690408 12.220046 7.136746 -0.00938862 -0.04329123 -0.06440587 -0.00031899 0.00007989 0.00003679
240 1 19.343790 4.482747 13.916531 -0.04021114 0.01821473 0.02879075 42802.35948061 -37391.74897564 -94590.72663924
241 1 19.825528 1.044376 27.407498 0.04149261 -0.01569515 -0.08220048 64.74631508 -1902.08417947 -192.11466851
242 1 27.454388 24.541334 22.381331 -0.00294193 0.01191745 -0.01631072 0.00002983 -0.00037029 0.00000383
243 1 31.919422 6.924904 10.263920 -0.03134810 -0.04259139 0.01579935 0.00020849 0.00005370 -0.00016939
244 1 3.784525 20.608607 20.015284 -0.00472922 0.01487974 -0.02187259 0.00514398 -0.03289823 -0.05790766
245 1 8.724590 20.811504 20.766779 0.01850125 0.00244597 -0.04023385 -0.00215745 -0.00206613 -0.00229209
246 1 22.144946 16.970601 11.019050 -0.04593956 -0.00680635 0.05001100 0.00000616 -0.00011593 -0.00011619
247 1 29.447394 20.965791 12.613905 0.03459177 -0.00026800 0.00011070 236.57233911 312.85727006 244.30861980
248 1 20.957654 30.713739 32.773681 0.02974052 0.00852504 -0.02499729 0.00010209 -0.00011875 0.00030444
249 1 29.881135 10.066526 9.976593 0.01118482 0.02246575 0.02170323 -2.57215882 3.98734089 -9.00097917
250 1 4.705327 26.385665 4.228451 -0.02777530 -0.01523916 0.03022900 -0.01522875 0.01099754 -0.00088081
251 1 2.043159 27.706062 22.917074 0.00085767 0.02620423 -0.02487489 0.00011238 0.00008807 -0.00023562
252 1 31.718634 0.518663 20.438163 -0.02859004 -0.01827302 -0.01951807 -0.00010043 -0.00015693 0.00021443
253 1 23.168786 19.530467 1.674305 0.00058187 -0.00709579 0.03053810 -432.77619741 -266.26565316 254.51902979
254 1 8.723533 23.803091 18.499234 -0.03848007 -0.03134144 0.02419552 -0.00027320 0.00030524 -0.00055326
255 1 1.321133 9.254782 18.949134 0.06514665 -0.04796718 0.00574408 0.07150367 -0.05116836 0.09122117
256 1 26.779415 25.017101 26.375428 0.00196810 -0.00036201 0.00664783 0.00022210 0.00007861 0.00007868
257 1 22.160386 32.615048 20.608730 -0.02045723 -0.05987066 0.01524880 -0.00021469 0.00044389 -0.00055532
258 1 21.403015 10.765696 23.517146 0.03604006 -0.05189800 -0.03125344 0.00045300 -0.00165873 -0.00101354
259 1 29.631319 31.295376 10.875028 -0.07593863 -0.00825563 0.00130155 0.00002913 -0.00031964 0.00137411
260 1 9.704436 24.118046 4.147533 -0.04816045 0.00797296 0.04983737 -0.00009415 0.00004401 -0.00012126
261 1 12.395981 11.103980 21.587759 0.02325573 -0.00396018 0.01841522 159.39299571 105.30186253 77.95228900
262 1 4.628160 3.841047 7.564697 0.02179280 -0.05218273 0.01690382 -0.00009961 0.00038295 0.00109306
263 1 21.734758 6.537832 22.787518 -0.01259632 -0.00863109 -0.00401557 2198.34932851 -6277.64248324 1940.83370122
264 1 8.732357 7.503445 31.704207 0.00470749 0.05318838 0.02805100 0.00027747 0.00029493 -0.00002853
265 1 4.726569 5.217427 22.414289 0.03877778 -0.03493324 -0.05482111 0.00073794 -0.00135167 0.00059783
266 1 31.306234 30.622707 21.840109 -0.07397633 -0.00632348 0.00207807 -75.79032822 1.69621061 55.51344600
267 1 4.520052 23.045886 9.852182 0.02351849 -0.01656307 0.07097786 -0.00008908 -0.00007198 0.00003175
268 1 18.310343 23.155102 1.880518 -0.02719101 0.02900358 -0.01715247 -0.00054020 0.00092137 0.00020078
269 1 26.661243 26.898186 5.209800 0.02385248 -0.02694459 0.01166847 -172.06918773 -134.00089530 -25.18527097
270 1 10.061162 20.297677 12.345201 0.01130878 0.02471447 0.00691800 -0.00005774 -0.00012087 -0.00011074
271 1 4.733090 19.477658 14.677868 0.08960217 -0.01457480 0.02244659 -0.00005758 0.00011856 0.00025687
272 1 28.975936 32.390118 1.701050 0.05169946 -0.03135376 0.02807149 -0.00078670 -0.00072095 -0.00186403
273 1 31.613350 5.363406 8.761357 -0.02608976 0.01358784 -0.02543368 -366.56943013 -132.48193041 -443.52691003
274 1 28.068101 7.428067 20.169371 -0.00491416 -0.03975272 -0.00350885 0.00125240 0.00184177 0.00035313
275 1 24.886942 6.265053 18.815851 0.00018340 -0.01484436 -0.00064034 0.41882249 -0.50124357 0.32250811
276 1 12.302563 17.341526 12.282057 0.02155926 0.01840711 -0.00283021 0.00001148 0.00003001 -0.00005882
277 1 19.918104 5.323971 28.852541 0.01300573 -0.03733834 -0.01915474 0.00013525 0.00091005 0.00043493
278 1 25.754896 27.674611 14.307672 -0.00694528 0.00832177 0.01616957 -7.00066806 -2.81486376 -6.48914604
279 1 16.552950 8.869887 28.858796 0.02434959 0.03853042 -0.02762482 0.00004906 -0.00002315 0.00014685
280 1 7.263415 24.738910 21.545004 -0.02120792 -0.03397978 0.01303744 -0.00211122 0.00105517 -0.00105946
281 1 20.903414 23.998320 3.082651 -0.01179784 -0.01582050 0.05055360 -0.00021064 0.00083067 0.00036528
282 1 1.526396 31.700183 10.327359 0.02950048 0.02143751 -0.01969802 0.00004948 -0.00009038 0.00019291
283 1 25.199613 14.329621 14.730093 -0.00470595 0.00603031 0.00364740 0.00010611 0.00016077 0.00005284
284 1 27.588829 30.215370 10.843037 0.04461829 0.03843998 -0.00590341 10227.22833807 -51017.51152934 -39101.87256439