ITEM: TIMESTEP
0
ITEM: NUMBER OF ATOMS
4762
ITEM: BOX BOUNDS pp pp pp
0.0 40.691612
0.0 40.691612
0.0 40.691612
ITEM: ATOMS id type x y z vx vy vz fx fy fz
1 1 33.515545 12.174799 5.755414 -0.02272285 -0.05668385 -0.01742994 -0.00008781 0.00003521 -0.00011214
2 1 9.270485 21.911000 17.475522 -0.03155273 0.03409582 -0.03528911 -9.68638196 17.20771770 -28.60819743
3 1 6.387313 21.423003 20.836123 0.00370072 0.03069007 0.00452612 -11.78005650 10.68116410 34.70073535
4 1 14.558564 15.255931 14.223557 -0.00499459 0.01701751 0.01234452 -0.00004447 -0.00013176 0.00011566
5 1 35.616250 0.561411 4.850785 0.03408649 0.00083139 0.04971902 0.00007734 -0.00005654 -0.00002668
6 1 16.789918 27.117648 26.234170 -0.02973618 -0.04377025 0.03194870 0.00014386 -0.00000335 -0.00006523
7 1 36.744811 3.992563 6.348995 0.00165478 0.00646675 -0.00056007 0.00001103 -0.00008647 -0.00001021
8 1 20.267095 6.336703 16.373354 -0.07509302 0.02861644 0.02947223 0.00013675 0.00023951 -0.00011906
9 1 34.852577 25.046892 38.786348 0.00230642 0.02012866 0.02121708 0.00003676 0.00001618 -0.00003674
10 1 22.735161 21.356399 3.952769 -0.02131400 0.00966272 -0.06045328 -0.00000798 -0.00020821 0.00004471
11 1 32.090669 3.837410 35.561701 0.00153176 -0.04150911 -0.05489706 -0.00015222 -0.00014973 0.00004178
12 1 30.308486 22.181032 39.814955 0.00895571 -0.02417627 -0.00500070 93580.51892886 -31817.72698623 -1983.28662876
13 1 0.831690 40.492610 10.781514 -0.00917445 0.03764801 0.02324884 -0.00009022 -0.00017054 -0.00001216
14 1 31.691716 3.784637 16.854140 0.04544177 -0.00352132 0.01104811 -0.00007097 -0.00012224 -0.00001744
15 1 7.048188 18.093617 19.130199 -0.02004159 -0.02155495 0.02925115 -55530.03792684 -110431.27730181 54830.32101079
16 1 14.620444 9.633319 19.388443 0.03533829 -0.01793707 -0.02283124 0.00011301 -0.00000651 0.00024351
17 1 28.298491 9.806883 27.088357 0.01480175 0.02857886 -0.00848556 0.00011968 -0.00008851 -0.00004840
18 1 7.857269 2.981341 27.816326 0.00494648 0.01179643 -0.06306922 0.00026150 0.00007207 -0.00001144
19 1 35.060508 21.563632 27.919557 -0.00908131 0.00175116 0.01618630 0.00001797 -0.00000027 -0.00019827
20 1 28.684504 31.383786 11.230961 -0.00811912 0.01470423 -0.01699100 0.00006820 -0.00003301 -0.00004294
21 1 14.494945 7.948968 36.379187 0.05693337 -0.02668247 -0.02543331 0.00009507 0.00001166 -0.00005534
22 1 4.562648 19.280862 39.431328 -0.01427892 -0.06193922 0.04240557 -389989663.76218081 157399753.83952129 -228833303.76103717
23 1 2.895729 10.848289 13.223726 -0.00979404 0.00705211 0.03260904 -0.00012651 -0.00009234 -0.00004691
24 1 40.269945 8.571225 25.487370 -0.02814077 0.01746489 -0.02392429 0.00013880 0.00005719 -0.00005861
25 1 17.672382 5.534938 27.919957 -0.04842593 0.02601246 0.01504225 0.00000192 0.00004631 -0.00007245
26 1 20.778047 39.381305 2.932404 0.03108380 -0.04012987 0.00486464 0.00005604 -0.00010926 0.00006763
27 1 4.705118 22.799274 4.730651 -0.05002389 -0.04072701 -0.01366467 -0.00003916 -0.00001278 0.00009874
28 1 8.017273 8.121673 12.979982 -0.00177353 -0.03857529 0.03482635 -0.00000903 -0.00009617 0.00014261
29 1 39.619965 40.312998 13.413360 0.01280642 -0.01923268 -0.00821785 0.00033596 0.00005639 -0.00001672
30 1 39.981743 25.425941 0.214772 -0.03217902 -0.00334737 -0.01352148 -0.00000945 0.00007161 0.00000935
31 1 32.973589 7.842459 7.088541 -0.00356352 0.00900971 0.00214981 -0.00007245 0.00016612 -0.00010993
32 1 28.484973 34.853717 7.710876 -0.06874018 0.03548136 0.03200774 0.00006110 -0.00008939 -0.00014197
33 1 7.326985 36.487014 13.779583 -0.07532713 -0.01508881 -0.01523702 -0.00003290 0.00008616 0.00005679
34 1 5.333473 40.514360 16.524849 -0.02620903 -0.01552019 0.00750383 -0.00024733 0.00002335 0.00008309
35 1 37.582898 14.857175 1.873644 0.00857649 0.00437197 0.01683676 0.00001416 -0.00000426 0.00005555
36 1 33.385438 4.505753 6.752158 0.04269788 -0.04647726 -0.00043898 -0.00002142 0.00003807 0.00001924
37 1 13.150617 0.051686 34.257663 0.07486780 0.02780620 -0.05001972 0.00002923 -0.00003307 -0.00016063
38 1 4.916470 38.148908 13.110605 0.05966467 -0.08407413 -0.01273684 -0.00000465 0.00022851 0.00025795
39 1 11.083729 9.937201 30.343677 -0.05900688 0.02044593 0.01432350 0.00007172 -0.00015655 -0.00003924
40 1 34.877361 26.161839 36.173753 0.03997017 0.01835320 0.05043978 0.00010075 0.00000239 -0.00010040
41 1 11.986832 34.020985 33.079701 0.01840288 -0.02235553 0.04188795 -0.00004666 0.00006867 -0.00010057
42 1 5.648118 24.958752 14.278847 -0.05195953 0.05382375 -0.04841189 -0.01497583 0.01887987 0.00221973
43 1 0.495260 31.922183 8.796191 -0.01592068 0.00561093 -0.00154489 -0.00008003 0.00007579 0.00001335
44 1 39.339225 5.302912 2.767144 -0.00523842 0.03269524 0.05703996 -0.00011247 0.00007686 -0.00000696
45 1 21.154340 20.629815 25.592346 -0.02561624 0.02582054 -0.03968774 0.00004250 0.00007835 -0.00007637
46 1 38.204977 34.083309 7.984401 0.03136337 -0.03385292 0.01928520 -0.00007284 -0.00002085 -0.00011493
47 1 9.444264 5.762434 13.354917 0.00150404 -0.03009181 0.01562733 -0.00001299 0.00005483 0.00019436
48 1 28.176359 34.420984 38.946575 -0.00147303 -0.00812901 0.02858271 -0.00021686 -0.00006363 -0.00010813
49 1 17.689213 11.262275 21.892374 -0.05061247 0.05999006 -0.05221333 0.00005423 -0.00013260 -0.00009988
50 1 26.673284 28.438143 36.829997 -0.01421509 -0.04662233 -0.02956684 -0.00013279 -0.00019279 -0.00016039
51 1 34.412426 39.506469 40.544673 -0.01741180 -0.01388338 -0.02779870 -10.76390495 -3.43523740 42.88710514
52 1 21.204345 36.514804 13.322707 0.02078898 -0.03352354 -0.02173546 -0.00000728 0.00009103 0.00010690
53 1 22.402046 29.340847 5.241624 -0.00582141 -0.01609519 0.00594664 -0.00000040 0.00004106 -0.00004764
54 1 15.915533 30.917149 10.603666 -0.01801332 -0.02818505 -0.04804674 550558.30211790 -5535605.75994449 1312218.61845554
55 1 11.050989 31.332956 17.062971 -0.00572973 0.00611157 -0.02922387 0.00008900 0.00009213 -0.00014820
56 1 5.571361 40.072621 29.089785 -0.00415069 -0.05513128 0.01150093 0.00002871 0.00009509 -0.00001468
57 1 39.955619 8.039051 26.974265 0.00012954 0.03349930 -0.05596659 -0.00002517 -0.00016154 0.00009796
58 1 23.910444 30.208927 36.040661 -0.02074584 -0.04112356 0.02196868 -0.00017261 0.00005411 -0.00012032
59 1 37.380792 14.960639 8.392434 0.03868820 -0.01085477 -0.03880417 -0.00006374 -0.00005298 -0.00017251
60 1 6.466251 18.535435 37.067547 -0.03998147 -0.00242515 -0.02747027 0.12320799 2.92907148 -4.50614253
61 1 20.651984 8.002582 21.665487 0.04345211 -0.00307582 0.02227595 0.00014628 -0.00001213 -0.00002968
62 1 25.252646 6.536590 16.544045 0.02088878 -0.02087334 -0.00848122 -0.00017814 -0.00002888 -0.00007695
63 1 33.197567 22.321849 33.429360 0.02761536 0.01120878 -0.00908746 0.00011137 0.00002939 0.00009770
64 1 14.861766 33.260087 16.883719 -0.01516637 -0.01919667 0.03771019 0.00003771 0.00001470 0.00019930
65 1 20.478180 26.953710 21.233883 0.00902165 -0.02185939 -0.02907194 0.00004424 0.00009881 -0.00008849
66 1 40.351791 6.123749 2.713479 0.01453026 -0.03047032 -0.03449192 -0.00007078 0.00002744 0.00023847
67 1 9.240559 16.347516 16.483806 0.05892115 -0.04589958 -0.03380432 0.00120767 -0.00122793 -0.00144894
68 1 31.807087 17.112254 36.316614 -0.01041512 -0.00334128 0.04321729 472.12089792 -187.86686457 2846.26562691
69 1 40.022533 0.397255 3.817726 -0.02210072 -0.03783256 -0.03116926 0.00008298 -0.00003849 0.00010628
70 1 23.706175 15.213215 28.240260 -0.04406397 -0.02581253 0.00793711 -0.00003650 0.00009754 0.00005640
71 1 20.366286 22.642592 35.261900 0.05597912 -0.03021232 0.01935616 -0.00006401 -0.00009021 0.00029068
72 1 33.609556 29.616384 40.502254 0.01604648 -0.00166720 0.02552971 -0.00005462 0.00010085 0.00013143
73 1 3.936794 36.172389 33.969837 -0.06696607 -0.00562697 -0.02666521 -0.00005628 -0.00004852 -0.00000227
74 1 11.627220 14.546670 16.231421 0.01417272 -0.01037347 0.01540239 0.00008518 0.00005006 -0.00005598
75 1 8.959161 24.175316 15.753043 0.00830392 -0.04793213 -0.02958566 0.00381767 -0.01349439 0.01072679
76 1 33.351165 22.464732 38.667770 -0.02144128 -0.00854413 -0.02830386 0.00158789 0.00018564 -0.00048180
77 1 17.316686 0.570533 7.253142 -0.01123031 0.01964736 0.01356646 40.52341958 -88.19472084 58.93859425
78 1 26.299055 4.629397 25.575748 0.03063817 0.05514387 -0.01277233 -0.00007681 0.00000343 -0.00004792
79 1 6.514301 12.442150 0.537886 0.04193371 0.00163589 0.03978648 -0.00009557 0.00000182 -0.00003258
80 1 40.671896 10.148485 33.982097 0.02235139 -0.00425498 -0.09028565 -4398.12351912 -925.79018722 -830.48806815
81 1 1.064531 3.405871 8.949542 0.02973948 0.00379955 -0.00864314 0.00004722 0.00011493 0.00012741
82 1 17.018180 17.195314 32.679143 0.05161908 0.00189143 0.03714590 -0.00004671 0.00004878 -0.00009468
83 1 38.833970 6.976923 25.505144 -0.01372210 0.05082516 -0.01473547 -0.00008878 0.00012851 -0.00006907
84 1 9.345305 12.212973 9.262121 0.01007049 0.01876151 0.02989659 -2794269.22411834 -1016337.72593978 -592621.13822586
85 1 17.902610 27.721281 19.126824 0.01651587 -0.00043352 -0.00230671 0.00003095 0.00001760 0.00013276
86 1 14.838027 10.157034 29.998302 -0.01660022 -0.03283243 -0.00916786 0.00014450 0.00011644 0.00015865
87 1 10.101365 20.927395 20.369435 -0.01606165 -0.00121135 0.05648190 0.00286116 0.00016088 0.00049725
88 1 23.972874 32.720001 39.262944 -0.00226980 -0.04054992 -0.01223497 0.00003358 0.00012476 -0.00016111
89 1 23.996056 32.687946 5.933075 0.02054094 0.01895088 -0.01237046 0.00001653 0.00004805 -0.00019488
90 1 18.471290 22.933354 3.681996 -0.08390576 -0.01422960 0.01331203 -5096.01138495 -4153.84477101 -34132.57014526
91 1 18.648891 16.161927 26.531319 0.04373600 -0.06422071 0.08277501 0.00010754 -0.00008335 -0.00004148
92 1 4.091032 10.379853 24.374776 -0.05404182 0.02603687 0.02985787 0.00000658 -0.00007233 0.00023081
93 1 21.110569 12.210826 35.429343 -0.05839537 -0.00600989 -0.03804007 0.00008225 -0.00001305 0.00001527
94 1 26.305372 8.172806 23.574411 0.01582373 0.03909399 0.00308276 -0.00000375 0.00002666 -0.00005856
95 1 17.392003 34.743574 31.719075 0.01134914 -0.04465640 -0.05667348 -0.00000473 0.00006893 0.00015830
96 1 26.622482 8.602263 0.987694 -0.04277506 0.03073557 0.00699055 0.00012984 -0.00006348 -0.00014304
97 1 6.173733 9.887789 37.763818 0.03230160 -0.03575315 0.00735887 -0.00008925 -0.00005101 0.00005492
98 1 6.106347 0.406736 6.953224 0.01396718 0.04520541 -0.01514228 -0.00007365 0.00003791 0.00000301
99 1 40.155137 19.395851 19.915214 -0.00832494 -0.00704139 0.02633998 0.00001793 0.00000569 0.00002070
100 1 34.792454 13.644062 38.019845 -0.00078281 -0.01832928 -0.00828677 0.00026168 -0.00034816 0.00012280
101 1 20.211341 22.871567 13.609771 0.01301111 -0.03556860 -0.01542061 0.00003208 0.00003590 -0.00008898
102 1 6.421605 4.193135 10.703346 -0.04055251 -0.01827705 -0.01864258 0.00005162 -0.00016786 0.00014937
103 1 29.068170 0.788355 10.575657 0.02596012 -0.02587271 -0.03434885 0.00009323 -0.00008836 -0.00006949
104 1 16.927997 39.490202 9.449056 0.03074277 0.03522256 -0.01819120 89.59490126 -123.74386844 29.06544898
105 1 15.772933 21.279226 16.968236 0.01164487 -0.02053794 -0.01969226 -152.42445890 -1607.60194029 831.18284316
106 1 13.759629 2.234555 3.996350 0.02483067 0.00467550 -0.02550122 -0.00020389 0.00011907 -0.00015869
107 1 3.312399 33.971786 31.691073 0.03799332 -0.01066558 -0.00912836 -0.00002785 -0.00007237 0.00001174
108 1 31.216200 14.056712 21.582306 0.01751111 0.01039662 -0.01729391 0.00012454 -0.00009877 -0.00002815
109 1 28.466469 16.422537 27.837367 0.04292266 -0.00541415 0.02193719 0.00003422 0.00007676 0.00002672
110 1 32.699053 30.240713 8.750519 0.03582478 0.03278868 0.03306911 0.00010571 -0.00015175 0.00001245
111 1 6.398658 39.196264 4.733011 -0.00779128 -0.01709504 0.00762708 -0.00005719 -0.00002548 0.00004307
112 1 1.155159 34.820314 8.600668 -0.01142120 -0.00763513 0.00580888 0.00009186 -0.00010194 -0.00004167
113 1 10.528627 22.505223 21.674813 -0.02095434 -0.00778377 0.04348677 0.00117984 0.00036091 0.00092913
114 1 8.810420 23.148608 16.142106 0.00781518 -0.03041108 0.00625604 -117227624.89131565 -501686685.93609965 -371556483.88909674
115 1 36.106357 12.939832 35.944597 0.02966864 0.00087703 -0.04811078 -0.00007166 0.00002854 -0.00007474
116 1 32.034655 23.086656 39.784424 -0.01507997 -0.00265372 -0.00727544 -4.75099350 -2.49253529 0.08393275
117 1 15.925203 34.679936 0.636674 -0.04955107 0.03595397 -0.09041166 0.00016671 0.00009707 -0.00011290
118 1 21.997306 24.347234 34.622054 -0.06818077 -0.00154256 0.02308659 -0.00021277 0.00014319 -0.00005372
119 1 11.117784 36.916209 20.447432 -0.00213478 -0.05035790 -0.00793831 0.00001997 0.00011706 -0.00000911
120 1 36.851093 15.754453 29.633033 0.01797247 0.00706665 -0.03239926 -52.30282474 -204.68819086 113.15325545
121 1 30.557466 37.525529 7.558318 -0.01450267 -0.01400979 0.04557183 0.00000132 -0.00015321 0.00017924
122 1 4.579540 15.828693 20.450169 0.01414645 -0.00982602 0.01951736 -0.00188592 -0.00174981 0.00090848
123 1 16.177181 30.878843 23.647718 0.01508400 0.00879386 0.04443739 0.00011179 -0.00025090 0.00012851
124 1 33.662321 39.383310 30.937046 0.01305766 0.03836799 0.00142374 0.00005556 -0.00009045 0.00001904
125 1 33.053476 31.466143 28.527254 -0.00535347 0.00556601 0.00838970 -0.00000103 0.00002370 0.00010447
126 1 8.531640 35.997325 11.831063 0.00858129 -0.03270477 -0.01335323 13442.08100993 -22679.75243480 27888.77494324
127 1 2.584995 21.267654 40.177599 0.06265655 0.04170286 -0.00258523 380075.61402227 331632.58660847 -34705.76691067
128 1 5.834768 14.252797 27.946205 -0.00634778 -0.03107614 0.01935855 48062.71201262 6086513.30056111 -4631156.99402912
129 1 23.544134 17.137881 31.410378 -0.04482379 0.00662884 -0.06151455 0.00013668 0.00007433 0.00017260
130 1 17.315759 8.484347 32.427504 -0.02806340 -0.00697397 0.05465993 0.00013787 0.00008609 -0.00002869
131 1 36.333742 37.462332 15.811200 -0.04936554 0.01900630 -0.00039162 0.00004948 -0.00000995 0.00007693
132 1 3.584925 8.131833 39.477325 0.00764554 0.02385500 -0.00725914 -0.00007355 -0.00001182 -0.00022940
133 1 8.006495 17.345186 1.808256 0.00040909 -0.00456184 -0.00905244 0.00037264 -0.00024078 0.00043458
134 1 6.136828 25.626121 23.739463 0.03853580 0.04666162 0.04808698 0.00009084 0.00038745 0.00007441
135 1 15.037737 24.155039 24.206560 0.01582594 0.06320804 -0.00184366 0.00009901 -0.00006073 0.00008815
136 1 24.188862 9.116316 2.364456 0.02968239 0.03432600 0.02314384 -0.00004299 0.00006831 -0.00016826
137 1 38.326214 0.689267 8.541602 0.01407740 0.00676679 -0.07246140 0.00011291 -0.00003548 -0.00002844
138 1 32.642275 29.367932 11.733785 -0.01542649 0.04741919 -0.01116395 0.00004593 -0.00006039 -0.00015529
139 1 34.706788 15.441974 16.397448 -0.01728883 -0.01198813 -0.05173757 0.00011116 -0.00005616 -0.00004256
140 1 15.821553 3.253589 30.579138 -0.00655185 -0.03229568 0.02463909 -0.00000161 0.00004234 0.00001754
141 1 8.623453 25.345911 30.381022 -0.00500044 0.02136939 0.04014023 0.00010444 -0.00001748 -0.00001867
142 1 2.717036 28.844500 7.567360 0.02507519 -0.03064683 0.03242942 0.00013186 0.00005209 -0.00017571
143 1 15.168537 17.654594 25.806286 0.00875102 -0.00196734 0.02656509 0.00011584 -0.00019299 -0.00010350
144 1 33.709216 7.180986 17.155276 -0.00676455 0.03858487 0.05316205 -0.00004986 0.00001828 -0.00005431
145 1 1.114907 29.504152 28.262681 -0.00608023 0.00769608 -0.03025980 -0.00000510 -0.00002297 0.00013806
146 1 35.480012 27.564176 8.539061 0.00962325 0.02007794 0.02470612 -0.00007467 -0.00004599 0.00002213
147 1 14.660362 9.503997 20.472574 -0.00322565 0.00617141 -0.01843551 -0.00006819 -0.00007422 0.00007321
148 1 36.909275 32.632662 17.064169 -0.00510406 0.00768168 0.02501299 27.35085620 -2.93082249 2.81228911
149 1 37.384328 4.574990 30.428489 -0.04382798 0.05008195 0.00526071 -0.84651795 -9.10041427 3.79299743
150 1 37.688642 10.253258 19.565534 0.06225453 0.03175966 -0.07924275 -0.00004422 -0.00002307 -0.00001279
151 1 21.201822 7.673026 9.416300 -0.02400909 -0.01108566 -0.03293208 0.00010233 0.00002651 -0.00008167
152 1 29.654631 28.461312 31.231522 -0.03952193 -0.00208577 -0.00038568 -0.00001133 -0.00012338 -0.00012890
153 1 5.085658 35.567822 39.693003 0.03004481 0.03047053 -0.01387913 -0.00003763 -0.00013189 -0.00003485
154 1 31.343845 21.164822 39.887824 -0.01672374 0.04237004 -0.00779458 -184.15241726 180.74662838 -12.96058955
155 1 39.031604 17.627186 20.588337 0.01872975 0.01678940 -0.00963876 -0.00009696 0.00005021 0.00002438
156 1 16.364861 39.326547 33.684056 -0.04059256 -0.00502551 -0.02013132 0.00011554 -0.00003642 -0.00011802
157 1 37.671683 14.126369 26.730965 -0.01283786 0.08012524 0.03925925 0.00059864 -0.00106045 -0.00230151
158 1 23.511999 20.402387 18.599582 -0.01366190 0.01768424 -0.04455290 0.00012228 0.00005813 -0.00014386
159 1 8.872879 18.579772 33.991704 0.02089314 -0.00502922 -0.01627292 0.00126436 0.00007896 -0.00144887
160 1 17.021847 18.007665 24.924629 0.01992439 -0.05615037 -0.02279838 -0.00007425 -0.00001724 -0.00007850
161 1 34.316759 20.157903 13.062866 -0.00095966 -0.00073028 -0.02601882 -128.83763512 6.80931985 -243.46419593
162 1 18.916399 16.800140 10.573536 -0.00530955 -0.09826258 0.00524799 0.00005710 -0.00020289 0.00001412
163 1 14.317123 10.655400 11.215064 0.00264959 0.00983125 -0.01698750 0.00001844 -0.00007115 -0.00005803
164 1 34.064966 19.355296 35.612983 0.02806692 0.02522491 -0.00190191 0.00123096 0.00120668 -0.00049106
165 1 23.747410 3.166502 17.925493 -0.03452704 -0.06336587 -0.04316301 -0.00008591 0.00002360 0.00009564
166 1 20.935182 29.847166 17.841286 0.03689109 0.02870458 -0.01144338 0.00011167 -0.00007316 0.00010331
167 1 17.190458 40.246728 27.470846 0.06136019 0.00125317 0.04381731 -0.00004011 -0.00011773 -0.00001562
168 1 34.846642 0.323578 30.703508 0.04846391 -0.01779112 -0.00447450 -482631.70015010 248993.95252859 664475.79295824
169 1 14.107808 32.959091 32.261218 -0.00225099 -0.03427803 -0.00775808 0.00007033 0.00002496 -0.00005466
170 1 7.691836 36.260854 26.125200 0.04975689 0.01356921 -0.01419839 0.00002654 -0.00000768 0.00009833
171 1 27.819568 5.375709 39.045292 0.00211718 0.02675629 0.02966102 0.00008789 -0.00008489 -0.00005873
172 1 10.662255 26.983072 2.778519 -0.01233404 0.00590524 0.05198683 0.00004423 -0.00024831 0.00008240
173 1 21.092844 27.226593 21.548943 -0.02456774 -0.00513854 0.05511922 0.00009626 -0.00008100 0.00008234
174 1 8.018672 0.655310 25.494540 0.01565950 -0.02409573 -0.04047626 0.00006921 0.00017238 0.00003598
175 1 29.369621 24.530939 19.117652 0.02679598 -0.04640176 -0.06003732 -1.28224322 -5.54753977 6.37679900
176 1 36.080084 0.796560 26.168178 0.00583334 -0.00185950 0.02204735 0.00003372 0.00007449 -0.00053411
177 1 18.871464 26.495091 36.329264 -0.03050349 -0.01232124 -0.01654353 -0.00008362 -0.00002217 -0.00010906
178 1 31.863428 26.227017 9.551402 -0.01677922 -0.01650217 -0.00778255 -96219.53203690 -19872.78979219 7917.48851837
179 1 30.762620 26.175619 38.844966 0.00827719 -0.03869229 0.03367188 0.00006875 0.00135631 -0.00024486
180 1 8.794124 6.738620 30.387215 0.03647972 -0.03556913 0.06052336 0.00003862 -0.00003670 0.00020032
181 1 23.078159 38.006487 16.038434 0.01953696 0.02712850 -0.04784337 -0.00010517 0.00009117 -0.00006957
182 1 33.853596 36.663470 38.046914 -0.03484370 0.04216751 -0.05190334 -0.00038499 -0.00159186 -0.00136303
183 1 9.086191 35.518043 6.172308 -0.01172899 -0.01781412 -0.02221845 0.00003969 -0.00004482 -0.00023132
184 1 17.199412 33.079029 11.790145 0.02751721 0.01379380 -0.03677807 30.75349345 15.36035915 1.56766380
185 1 15.577863 10.326567 7.022779 0.03348279 -0.05186874 -0.02269624 -0.00005476 -0.00008567 0.00004016
186 1 13.691601 4.479238 35.197120 -0.00191887 -0.02630122 0.01000158 0.00000997 0.00008793 0.00000090
187 1 21.968708 34.106121 21.640152 0.02281622 0.00136895 -0.01798416 0.00013265 0.00001695 0.00030587
188 1 4.147529 32.972826 16.300500 -0.03531711 -0.00538127 0.02861230 0.00002736 -0.00002894 0.00007997
189 1 14.935645 36.314255 37.069087 -0.06731265 0.00742620 -0.00035881 -0.00003834 0.00000512 -0.00019188
190 1 32.231781 9.962939 19.614015 0.06545039 -0.00569183 -0.03079483 0.00011511 -0.00031953 0.00015103
191 1 36.850681 15.118983 39.847088 -0.01250422 -0.01445493 -0.00016049 0.00004906 -0.00007589 -0.00003956
192 1 2.176188 12.290644 20.217724 -0.02511036 -0.02621030 -0.02533769 -0.00009993 -0.00003120 -0.00008531
193 1 17.870517 12.406493 34.708463 -0.03856068 -0.05960489 0.03207224 -0.00011363 -0.00002428 -0.00005239
194 1 40.136145 28.014224 28.874241 -0.04093342 -0.01856725 0.02098538 -0.00014668 -0.00011572 0.00016616
195 1 9.361763 33.363084 37.104745 -0.03062201 -0.02402684 -0.03737436 0.00012732 -0.00000011 -0.00001073
196 1 17.626610 33.583447 24.805861 -0.07036203 0.00452201 -0.01060354 0.00018855 0.00005516 -0.00000915
197 1 40.089747 28.542857 29.531873 0.00811701 0.02025866 -0.03082515 -0.00010772 -0.00003562 0.00007565
198 1 10.658410 6.768294 26.010048 0.03282165 0.01874948 0.04332846 -0.00021592 0.00000634 -0.00011929
199 1 16.822122 14.095959 14.191003 -0.02398289 -0.00294759 0.03920895 0.00006979 0.00004682 -0.00003491
200 1 20.593469 22.755356 40.452486 -0.01932851 -0.01870543 0.04118757 646.14665824 -7732.72965108 -6.07802655
201 1 4.305469 29.914160 5.642340 -0.03063322 -0.05935474 0.06626820 -0.00001019 0.00011632 -0.00011648
202 1 20.331547 0.686794 1.877138 -0.00526504 -0.01821057 0.00507687 0.00011798 -0.00003700 -0.00017219
203 1 22.903383 26.000110 8.837562 0.01979653 -0.04447798 0.03804754 0.00010424 -0.00008506 0.00006021
204 1 37.915304 21.389615 2.620674 0.01713365 0.00324338 0.03023497 -0.00002052 0.00031185 0.00005590
205 1 24.148063 11.726043 33.500107 0.01435521 -0.00367461 0.00185781 -7749.09811387 3913.94949071 68493.22675073
206 1 10.297126 21.293432 21.023411 -0.00775344 0.03417325 -0.02176877 0.00276744 -0.00003966 0.00246606
207 1 26.760815 29.314276 39.619812 -0.00938657 -0.01371841 0.00851460 0.00002735 -0.00000213 -0.00004681
208 1 37.670280 22.481020 35.515380 0.02607904 -0.02530628 0.04525185 -0.00017674 0.00006952 -0.00021943
209 1 38.157229 12.080066 6.261880 0.01068957 -0.05348009 0.01410961 0.00002821 -0.00009971 -0.00002494
210 1 2.573592 12.693540 24.580790 -0.03344114 0.01791884 -0.05411431 -0.00029142 -0.00029179 -0.00031465
211 1 14.630823 26.006918 26.675858 0.03099572 0.02126198 -0.01282727 -0.00005497 -0.00000373 0.00008684
212 1 31.862933 34.047983 6.021068 -0.01663535 0.03013516 -0.04215663 -0.00008175 -0.00002661 0.00001605
213 1 23.758738 14.486757 39.784195 0.00258090 0.02641201 0.01387458 0.00011374 0.00026643 -0.00014970
214 1 29.298350 9.837668 29.983809 -0.00531851 -0.02189205 0.00402023 0.00019549 -0.00011147 0.00003663
215 1 16.393198 4.829543 25.628195 0.01696787 -0.05332291 -0.02072900 0.00030026 -0.00008648 -0.00001976
216 1 11.174190 29.511763 31.712869 0.00625321 -0.03578171 -0.09319689 0.00007234 0.00010227 -0.00018316
217 1 22.843531 25.253278 36.634509 -0.01977048 -0.04980562 -0.04401224 -10197.43550807 -5912.31170736 -3368.63849029
218 1 10.759080 8.958241 19.219044 0.07163844 -0.01053227 0.05002691 -0.00012969 0.00002629 -0.00002330
219 1 13.196334 19.813402 30.313467 0.00362654 0.06215420 -0.02021262 -0.00002853 -0.00004019 -0.00001965
220 1 37.496622 20.370716 25.557492 0.03355281 -0.02459773 -0.02550795 0.00016918 0.00015440 -0.00003135
221 1 11.280838 6.206489 19.039579 0.01151686 0.06390471 -0.01210989 1623.55675621 13721.37211025 18631.37249895
222 1 38.303034 4.668278 20.972408 -0.00352714 -0.01099796 -0.01909145 0.00010312 0.00004395 0.00005167
223 1 10.892911 35.593753 26.777789 -0.01340656 -0.00103829 0.04480965 -27023.95547985 14543.96752926 -7286.00956069
224 1 36.189963 13.111127 25.945376 0.00842414 0.00902833 0.01180323 -0.00015937 -0.00018777 -0.00067562
225 1 23.730267 22.184262 24.184492 -0.04309152 -0.03602216 -0.01818660 -0.00007379 -0.00007360 -0.00007368
226 1 9.767183 2.012287 12.436513 0.03624686 -0.00219206 -0.00003536 -499.36330247 -405.18466645 -155.66132066
227 1 30.699809 26.064772 6.134296 0.09248372 0.00219153 0.02340755 -0.00085255 -0.00010312 -0.00241334
228 1 22.785305 38.916499 25.125993 -0.01560347 0.02055408 0.01609068 0.00011228 0.00007074 -0.00009493
229 1 26.546993 15.021370 8.123470 0.03478996 0.03125696 -0.01012089 0.00008240 -0.00013070 0.00007784
230 1 35.414828 28.109395 26.734178 0.00005255 0.01583202 -0.08571698 -0.00001120 0.00002685 0.00008315
231 1 1.593690 19.463411 23.867683 0.01364224 0.01736301 -0.04298347 -0.00022617 -0.00017994 0.00016242
232 1 7.901545 34.069665 36.085087 0.00535759 0.00864240 -0.00499466 1016541.92057023 -278127.03773063 141832.40020074
233 1 9.996617 2.121264 38.059966 -0.04703441 -0.01010324 0.02908379 -238525.40592461 -117341.88026583 55647.08962320
234 1 34.135708 7.853172 30.815739 0.02706159 -0.03035811 -0.03708293 -0.00052206 0.00051225 0.00000863
235 1 17.851436 35.841161 9.517547 0.08522845 0.05142273 -0.01356386 0.00104698 -0.00023101 -0.00121652
236 1 25.297182 19.261371 25.419054 -0.01564133 0.01702671 -0.01454334 -38.80240032 -83.79825003 131.50629627
237 1 18.667541 20.472752 9.665585 -0.00405810 -0.01823997 -0.01708927 -0.00000084 -0.00010227 -0.00017595
238 1 29.836865 6.807337 24.595858 0.01007439 0.00299867 -0.02571887 0.00003562 -0.00014392 0.00005831
239 1 28.170206 19.914403 1.852097 -0.02267396 0.00288343 0.06614342 -0.00064304 -0.00080088 0.00096503
240 1 22.356403 20.456760 4.616939 0.00319413 -0.04537871 0.00973332 0.00062910 -0.00046585 0.00021185
241 1 20.583391 26.526081 30.377612 0.00936570 -0.01006465 -0.03916389 -0.00004900 0.00003947 -0.00019694
242 1 5.627701 24.771701 7.163655 -0.01465190 0.05668643 0.03436132 -0.00007038 -0.00005945 0.00007585
243 1 39.555457 20.971499 39.089890 -0.02834943 0.04503932 -0.05827504 -0.00195548 -0.00015115 -0.00056148
244 1 21.142834 8.639049 16.431250 -0.01049961 0.01066421 0.00471726 -0.00005820 0.00007454 -0.00028594
245 1 14.539037 34.448770 22.269031 -0.00225292 0.02453724 0.05991520 -3693.56735645 4835.65567822 13776.57852743
246 1 11.225027 30.066138 1.148596 0.00787350 0.01085639 0.02503086 -0.00010637 -0.00018306 -0.00015084
247 1 20.106024 19.360261 23.754236 -0.01667141 -0.02482717 0.02202889 -0.00016561 0.00009150 -0.00008469
248 1 33.527400 4.842464 32.196200 -0.00977151 -0.00819824 0.06106886 -0.00134693 0.00053379 0.00053388
249 1 22.360431 11.709000 28.553006 0.04036325 -0.01112460 -0.03864159 -0.00001166 0.00001928 -0.00020287
250 1 14.473713 23.948702 39.504211 -0.01267375 -0.02499990 0.07996363 -0.00019178 0.00003861 -0.00008791
251 1 16.604591 28.181596 12.572816 -0.01936288 -0.01511953 -0.01521477 0.00050505 -0.00242861 0.00174979
252 1 21.138191 30.638576 36.098210 0.00671063 0.02815774 -0.00240035 -0.00011052 0.00013921 0.00000587
253 1 38.197548 33.139102 36.319350 -0.00680332 -0.00727615 0.02455750 -0.00007032 -0.00000548 -0.00009423
254 1 27.950799 22.634884 30.026549 0.03322563 0.00256261 -0.02388822 -0.00012389 0.00015433 0.00019920
255 1 13.088198 23.068511 13.221578 0.02320930 0.02531697 0.00711681 0.00033482 0.00025802 -0.00078579
256 1 25.806762 37.266710 28.461864 0.02888247 -0.01167945 -0.00499044 -0.00003448 -0.00000526 -0.00005638
257 1 4.184501 15.957938 14.120320 0.02104855 0.06715007 -0.01089517 12.47098012 3.50148063 4.98871933
258 1 6.720378 8.738336 19.973625 0.03228082 0.03873385 -0.01847069 -0.00030436 0.00020284 0.00012450
259 1 8.837651 38.123237 17.882938 -0.00695693 0.01044546 0.00070904 0.00006620 0.00004912 0.00008337
260 1 25.384456 3.731854 1.347584 0.01837122 -0.01783797 0.03382912 -0.00010029 -0.00008817 -0.00004045
261 1 17.099741 2.961487 21.862527 0.01298685 0.02317011 -0.02398153 -8488.04336083 13026.94634594 -4247.38694473
262 1 3.878142 29.308214 31.243811 0.01921504 -0.02199245 0.00976779 0.00007262 0.00003182 -0.00003975
263 1 0.156983 4.625760 4.319750 -0.01640809 0.02459171 -0.02854066 0.00017191 0.00000946 0.00008620
264 1 32.491779 3.837020 39.524101 0.02152393 0.01178709 0.01914814 0.00001603 0.00026922 -0.00026996
265 1 5.647702 32.311522 15.122933 -0.01194163 0.03915676 -0.00250037 -0.00002933 -0.00004841 0.00022324
266 1 35.436873 0.758212 19.144606 0.03999016 -0.00071326 0.02194948 0.00013750 -0.00005279 -0.00011929
267 1 26.958741 35.184719 34.998041 0.01890224 -0.02229501 0.01359634 -0.00006407 0.00011983 0.00009349
268 1 21.457604 6.269057 12.783004 0.01548070 0.00463423 -0.01040881 -0.00015366 -0.00001262 -0.00001610
269 1 35.793523 27.974421 27.841069 0.04415399 0.05728467 0.01451059 0.00003587 -0.00010065 -0.00007716
270 1 36.892029 17.839234 39.121158 -0.01423621 -0.02366807 -0.02103816 131461732.68087319 -18299631.50182798 77408655.31454790
271 1 23.017365 17.426885 27.261932 -0.02665252 -0.04739506 0.02830553 -0.00172587 -0.00126039 0.00136222
272 1 13.240649 28.303145 0.238443 -0.02076017 -0.05152396 0.01163587 0.00027883 -0.00017649 0.00004905
273 1 21.003714 0.369464 21.765299 0.00788551 -0.00869239 -0.00506113 0.00041802 -0.00035526 0.00029779
274 1 7.435985 34.348061 19.697562 0.04381201 0.06416069 -0.07326986 0.00000256 0.00017708 0.00002445
275 1 30.761803 29.719530 37.903516 0.01462227 -0.03144479 0.00811829 -0.00013537 -0.00008699 -0.00011633
276 1 9.654489 5.499054 22.396198 -0.02968669 -0.01477779 0.03858602 -0.00090341 -0.00035798 0.00171766
277 1 11.194762 17.979491 15.910394 0.01784405 -0.01081191 0.00607409 0.00035743 -0.00088201 -0.00037582
278 1 21.680033 12.736430 14.346656 0.06791403 -0.03115176 0.04197041 0.00004514 0.00005035 -0.00013315
279 1 2.068383 30.611347 31.564914 0.00973976 0.00606368 -0.01044516 0.00000532 0.00000703 0.00008587
280 1 26.388727 34.908580 10.234238 0.01219982 -0.08916435 0.01002278 -739.35069723 -2666.44470316 -9743.24374222
281 1 38.081615 37.942965 25.068341 0.01299858 -0.03170557 0.06722304 -0.00019942 -0.00004172 0.00003329
282 1 15.349722 30.591152 23.258615 -0.04729245 0.03307040 -0.07941478 0.00025794 -0.00131167 0.00044033
283 1 0.494985 7.328308 8.709690 0.04155339 -0.01012056 -0.01564135 -0.00013262 0.00010122 0.00009134