ITEM: TIMESTEP
0
ITEM: NUMBER OF ATOMS
2673
ITEM: BOX BOUNDS pp pp pp
0.0 32.703636
0.0 32.703636
0.0 32.703636
ITEM: ATOMS id type x y z vx vy vz fx fy fz
1 1 10.852556 17.316118 8.218676 -0.02110104 0.00916565 0.01042719 0.00001788 0.00009246 0.00010346
2 1 10.415563 30.537195 12.901225 -0.02728106 -0.00233122 0.00665960 0.00006583 0.00009895 0.00004551
3 1 6.135707 25.039851 14.633830 -0.01804061 -0.00633276 0.03366026 0.00012883 -0.00001368 0.00005176
4 1 3.294906 22.030700 12.850452 0.01203367 0.01028888 0.01604186 0.00006774 0.00004661 0.00000367
5 1 32.185162 13.410505 17.965780 -0.02702846 0.01118022 -0.04685018 0.00016303 -0.00000160 0.00010953
6 1 32.071106 19.532275 30.704929 0.01285231 -0.02293003 0.00933248 -0.00007734 -0.00020540 0.00003835
7 1 0.341265 19.962560 13.010481 0.01879834 0.02553896 -0.02597146 -0.00002735 -0.00009324 0.00011648
8 1 2.879796 26.050963 5.947770 0.01861111 0.00094466 -0.01899441 0.00008260 0.00010600 -0.00017479
9 1 23.542015 18.848238 25.924533 0.08504556 0.00860630 -0.04324717 0.00017140 -0.00007230 0.00000575
10 1 2.653390 11.144480 18.326059 0.00937385 0.00517781 0.02025484 0.00005255 0.00004862 0.00002302
11 1 24.548311 18.680372 14.212653 0.01771764 0.00448789 0.00617511 0.00005032 0.00004655 0.00000186
12 1 30.587642 15.683340 1.517782 0.05643373 -0.02176294 -0.02732729 -0.00009780 0.00020248 0.00008596
13 1 28.729462 10.097763 29.108210 0.01691202 0.03300110 0.02379099 0.00008509 -0.00000251 0.00002917
14 1 22.063258 11.488189 20.906464 -0.06753466 0.00214931 -0.01932521 -0.00005739 0.00008697 0.00021976
15 1 24.277839 21.855236 2.544728 0.00569872 -0.02688521 0.03445725 271541.52633471 190509.28356901 1089467.55578621
16 1 10.171395 1.513743 0.314303 -0.00842874 -0.01730011 0.03032858 13.43280902 1.35586589 1.39325439
17 1 26.407482 5.560699 8.426592 -0.04061115 0.01346133 -0.00480744 -0.00008137 0.00011845 -0.00002320
18 1 3.318026 12.877499 10.385056 0.02939677 0.00884621 0.00701170 -0.00008960 -0.00002002 0.00008066
19 1 25.160486 11.507673 2.747095 0.04988153 -0.00191379 -0.03190013 0.00004380 -0.00006278 0.00000830
20 1 19.198956 31.551872 31.967441 0.03140951 -0.00645746 0.01965270 -55670485.12730332 -127714415.77892673 -18472412.77773201
21 1 2.773982 2.191858 7.769176 0.01074025 0.01104753 -0.03339359 0.00000528 -0.00005464 -0.00009393
22 1 22.268979 18.710739 10.621722 -0.02981029 -0.03181549 0.07136054 -0.00000756 -0.00008933 0.00003425
23 1 25.057765 28.730494 28.623355 -0.01241507 -0.04439924 0.04298708 0.00008783 0.00003744 -0.00014407
24 1 16.943402 21.620886 6.715018 -0.02052728 -0.07470473 0.04069941 0.00001917 -0.00001958 -0.00005274
25 1 20.558283 9.721826 11.077763 -0.01721932 0.02839289 0.04696137 0.00003112 -0.00013228 -0.00026310
26 1 10.027022 8.729713 3.671164 0.03984308 -0.00978504 0.05821728 -11034.25735953 -61936.32373582 11124.42360791
27 1 13.980766 23.568737 21.546972 -0.02633870 0.01702357 -0.02140448 0.00004213 0.00000644 0.00001576
28 1 0.559384 26.426077 22.062933 -0.02629063 0.02031214 -0.03813831 -0.00000422 0.00003405 -0.00002249
29 1 20.028546 12.629126 32.433887 -0.02900212 -0.00738792 -0.05110437 -0.00003038 0.00008776 -0.00019187
30 1 17.026612 32.305740 19.703344 0.05546816 0.00082010 0.03351827 0.60495333 -1.15627860 -0.43544795
31 1 22.887024 10.557142 30.844785 0.04369291 0.01952539 0.03530153 -0.00013102 0.00007080 0.00000600
32 1 20.197585 8.498677 1.793831 -0.04033060 -0.03740375 -0.02166777 0.00019337 0.00023511 0.00018504
33 1 19.118510 13.900918 25.051572 -0.03792867 0.01062355 -0.05139339 -0.00002742 -0.00007330 0.00008810
34 1 12.631173 19.289331 21.585711 -0.03333026 -0.01379653 -0.01186272 0.00005200 0.00003196 -0.00024060
35 1 16.194008 19.398539 26.428153 0.01193588 -0.02946479 0.04581939 -42196.06785972 -239817.85203872 -307516.78042939
36 1 23.488030 17.935990 12.946272 0.06274597 -0.00742053 -0.01238287 0.00006375 -0.00005244 -0.00010882
37 1 29.269915 12.243395 21.195771 -0.04656339 -0.04219570 -0.02950677 0.00009299 -0.00009352 0.00011978
38 1 13.243129 15.853289 20.654942 0.00833801 0.01895142 0.01855734 50096.24799631 -127708.69656107 -157943.86366185
39 1 31.323977 22.984575 29.947964 0.07156361 0.02778772 0.00378783 -53073.24581879 10335.14919403 -5242.50762646
40 1 26.172614 3.041512 10.325788 -0.01994886 0.06315933 -0.04732728 0.00008634 0.00003157 -0.00001733
41 1 29.244342 8.448965 8.517186 -0.03928290 -0.02687087 -0.01616110 -71.77264950 -86.90863330 74.44961207
42 1 31.494800 9.134552 9.335674 0.03043061 0.02063946 0.02509497 91.25432492 -30.77666111 50.78134682
43 1 22.879088 0.658602 6.264279 -0.02699378 0.01677037 -0.02848017 0.00009478 0.00009141 0.00002695
44 1 22.266470 16.425074 17.520407 -0.00354849 0.02319773 0.03163621 -0.00000073 -0.00000924 -0.00004678
45 1 2.147530 4.003976 4.050792 0.05263387 -0.01931000 -0.03409124 -0.00007394 0.00004411 -0.00004750
46 1 25.241950 23.034567 24.810809 -0.02469508 0.02941270 -0.00872013 -0.00003714 -0.00002109 0.00014044
47 1 19.574211 16.034067 26.464343 -0.02297262 0.00980193 -0.01816894 0.00039529 -0.00056633 0.00015482
48 1 5.267502 1.372750 25.204189 0.00397977 -0.02171436 -0.03427660 -2.69817963 -11.90492228 17.45855950
49 1 31.278883 17.161738 0.796421 -0.06664719 0.01261171 0.00393313 1152.77576743 -3432.00273360 -3496.57204309
50 1 5.027251 7.255100 1.465459 -0.01474367 -0.02047828 0.02306259 -0.00014219 0.00013582 -0.00011546
51 1 24.167360 3.604579 26.225225 0.02744458 -0.04367534 0.03453682 -0.00006226 0.00007360 -0.00000039
52 1 8.680669 13.805004 29.856077 0.00806554 -0.00888067 0.02950093 -168727.94222085 -26621.09495354 16405.62071347
53 1 27.809045 11.044649 14.411036 0.02534700 0.00702836 0.04750926 -4.48214478 5.96074581 -2.86777303
54 1 3.124378 7.544626 3.344805 -0.02487528 0.00445645 0.04442180 0.00014448 -0.00010365 -0.00021570
55 1 10.849919 25.355930 0.105528 0.01784853 0.01089933 0.01280812 0.00013313 -0.00007036 0.00000239
56 1 14.285402 10.026685 26.754124 0.03529961 0.05776606 0.01822527 -0.00000037 0.00010608 -0.00003119
57 1 24.478823 18.743335 16.450018 0.08246414 0.01328701 0.05658594 0.00005110 0.00000286 -0.00010434
58 1 27.138553 1.749713 27.457724 0.02860591 -0.02314891 0.06277210 0.00005045 0.00005680 0.00014644
59 1 0.643128 20.660528 10.292902 0.02904985 -0.03509683 -0.02837617 -0.00002360 0.00007088 -0.00013762
60 1 2.368536 12.295098 9.361528 -0.03465696 0.00398171 -0.00394627 0.00036454 0.00046871 -0.00009364
61 1 3.388520 20.713679 20.121822 0.04255277 -0.03663973 0.08054833 0.00006589 -0.00016626 -0.00013521
62 1 5.952295 27.793875 3.166242 0.05643249 0.02714278 -0.01381340 0.00002762 -0.00018687 0.00001423
63 1 21.237158 6.467318 29.048975 0.01170642 0.02052260 0.04102276 0.00013236 -0.00014446 -0.00020650
64 1 27.609078 3.688437 31.654496 -0.02407077 -0.00147861 -0.01836555 0.00015734 0.00013303 0.00004607
65 1 2.882498 24.996101 29.921389 0.01887511 0.00607711 0.00581288 0.00072363 0.00041128 0.00021997
66 1 22.153313 4.774425 6.630024 0.03749015 -0.01293196 0.00677898 0.00018997 -0.00013688 0.00001253
67 1 0.285545 20.466389 19.565934 -0.00301013 -0.04425772 0.07660417 0.00005614 0.00000882 -0.00005925
68 1 20.131018 6.155524 20.284310 -0.01673909 0.02327665 0.01782222 0.00015945 -0.00005187 -0.00012687
69 1 0.795934 30.615113 20.942677 0.03820666 0.07352123 0.00660802 -0.00002278 -0.00005679 -0.00015414
70 1 13.071361 27.242378 7.399569 0.00201721 -0.02765411 0.02114872 -0.00004035 0.00009914 0.00009450
71 1 22.705495 6.552719 0.183274 -0.06913716 -0.05039038 0.01377156 0.00012112 -0.00003663 -0.00009669
72 1 14.377693 5.674033 29.416355 0.06556641 -0.04199843 0.03065603 0.00014298 0.00009010 0.00004385
73 1 22.172518 12.144979 4.651409 -0.00001020 0.05368446 0.02976431 -141.51065032 48.28008225 45.54298519
74 1 20.040071 31.231957 21.155613 -0.03735839 0.01245948 0.01403378 0.00224796 -0.00053186 0.00107662
75 1 12.858077 19.901852 25.207601 0.05555291 -0.00008820 0.01451320 -71286.94565166 47884.39822687 106371.67840168
76 1 22.485011 5.258808 26.719820 0.04180838 0.02987517 0.00903115 0.00006049 0.00003917 0.00004482
77 1 22.292359 31.950188 19.624333 0.01114288 -0.03098875 0.05147127 0.00025396 -0.00000612 0.00002837
78 1 22.676708 24.521600 3.284768 0.04013503 0.01902042 0.03530804 -0.00056269 0.00073694 0.00019271
79 1 5.657681 14.474150 29.691963 0.00605187 0.00009498 0.01664964 0.00112896 -0.00014010 0.00006602
80 1 21.869316 8.796739 9.443936 -0.04967106 0.00543948 0.00563975 -0.00004731 -0.00028220 0.00012846
81 1 9.998861 9.493852 11.751336 -0.00741284 -0.04369925 0.02272473 -14441.51082227 3148.19792300 -8749.07638991
82 1 17.357398 14.838004 14.981195 0.00825126 0.08923330 -0.03313897 2682866.52461029 10691155.24625857 2154847.85250985
83 1 18.400551 24.969114 5.864828 0.01142643 0.07382160 -0.00593163 0.00003646 0.00008910 0.00006913
84 1 14.611053 19.775175 13.505550 -0.08474838 0.05444068 0.01506736 -0.00002457 0.00003749 -0.00011783
85 1 18.632632 15.075055 28.764968 0.01027349 -0.01859201 -0.01371731 -0.00005693 -0.00036187 0.00004957
86 1 11.570871 8.236115 3.343776 -0.00138271 -0.02690393 -0.03478823 -44.22200857 14.13879507 9.37772979
87 1 3.598626 26.729675 6.395081 -0.00206986 0.00200900 -0.01513378 -0.00007802 0.00029369 0.00008488
88 1 26.039992 30.485287 15.593039 0.03561282 0.05746883 -0.03387695 0.00007973 0.00011475 0.00001062
89 1 20.894344 20.320388 28.202998 -0.00895429 0.04095765 0.05679294 -8.23468144 8.68033543 17.68425107
90 1 26.447998 28.554952 20.445101 0.00858359 0.02817336 -0.05476495 -0.00020717 -0.00019734 -0.00005875
91 1 8.368303 31.441025 32.474406 -0.01994113 -0.00914624 -0.01072090 -0.00134873 -0.00187886 -0.00042613
92 1 9.240089 6.374056 14.685171 0.06014542 0.01786147 -0.00474415 -0.00005362 -0.00083500 0.00063463
93 1 4.990482 15.661277 6.094541 -0.05645173 0.02509053 -0.01507130 -0.00000101 0.00003798 -0.00000221
94 1 13.882806 32.163226 24.847663 -0.02146854 0.00019541 -0.00194961 0.00013564 0.00008426 0.00003134
95 1 18.196479 14.814236 3.781395 0.01352416 -0.00916311 0.04502896 -0.00046455 0.00031890 -0.00007970
96 1 15.504989 25.872134 16.599240 0.02102679 -0.00592873 0.01431870 -0.00002244 -0.00013816 -0.00013374
97 1 5.354066 7.221614 9.468023 0.02367008 0.01267848 -0.03208480 0.00007320 0.00002779 -0.00024643
98 1 7.971767 20.114394 29.454948 -0.00906079 -0.06946553 -0.02521935 -0.00008634 0.00011404 0.00010937
99 1 19.243559 16.662488 29.572099 0.02841079 0.04515104 0.00537547 -0.00028676 -0.00114452 0.00066259
100 1 9.315651 14.167954 24.781059 0.01661640 0.03217199 -0.02549845 -4110.36943643 9459.56443786 -1994.00681413
101 1 20.733753 30.212927 3.289645 0.00474282 -0.00403103 -0.02087548 0.00022376 -0.00034913 0.00057397
102 1 26.884836 17.912501 9.312969 -0.00130249 -0.02445266 -0.01572243 0.00032492 0.00013917 -0.00004897
103 1 0.102138 22.025973 4.999779 -0.07128298 -0.02742722 -0.01461564 -483635.27106999 -4326354.20425740 6594544.84473202
104 1 9.075003 3.367804 10.944297 0.01058056 -0.01517036 0.04143798 -0.00003550 -0.00010079 -0.00011937
105 1 12.526728 30.371022 25.689808 -0.04017490 0.00852568 0.01885192 -0.00004495 -0.00017150 -0.00007423
106 1 21.346881 19.568514 30.705277 -0.01895369 0.03932706 -0.06600793 -0.01131830 0.01880667 -0.06312279
107 1 6.068181 16.208881 12.657740 -0.03154388 -0.00352909 -0.00223788 -28.97998624 112.46642795 -603.54212830
108 1 31.761764 22.117400 32.418751 0.05465122 0.00962251 0.02659240 -0.01076129 0.02178148 -0.06103625
109 1 9.212802 22.584890 8.983524 -0.03200974 0.00443463 -0.03908062 -170638.82131624 -40415.93321920 -39160.31178990
110 1 3.378887 21.184160 26.829200 0.01724631 0.00232318 0.05054790 0.00027822 -0.00007378 -0.00024084
111 1 13.849486 17.688869 28.902784 0.00169316 -0.03251580 0.04164285 -0.00108746 -0.00139736 0.00199008
112 1 18.984033 24.469844 8.751468 -0.01742070 -0.01144761 -0.03290292 0.00005157 0.00012525 0.00011474
113 1 3.524631 30.303476 31.748121 0.00612045 0.03410066 -0.01836395 -0.00011932 0.00013802 -0.00006414
114 1 4.774740 28.761064 9.617055 -0.01198037 -0.03452091 0.03486686 -26248.85673359 20152.21208211 -2572.39056695
115 1 26.600061 14.711382 26.509381 -0.04385811 0.00933772 0.03271906 -0.00008591 0.00003024 0.00005535
116 1 4.139482 15.612468 12.171097 0.01165456 -0.02933989 -0.00972537 2.13172557 0.65922765 0.53795469
117 1 16.483020 2.851784 19.867595 0.02132669 0.02087770 0.00090663 -0.00023307 0.00216635 -0.00000439
118 1 32.343955 17.699268 13.587503 0.03310422 -0.00127954 -0.00879215 0.00007596 0.00002175 -0.00005934
119 1 12.342113 20.187589 25.898612 -0.01975452 0.00952564 0.01578192 66087.82703827 -36598.90268721 -88508.93383409
120 1 22.420895 1.330371 15.135301 0.05130400 -0.04964128 0.00338081 0.00013905 0.00008557 0.00003642
121 1 8.940542 10.926137 18.596754 -0.01555805 -0.02463896 -0.05022560 -0.00019578 -0.00000362 0.00006210
122 1 2.813624 20.311984 15.663713 0.00383530 0.01705531 0.00703443 -0.00004277 0.00021497 -0.00006686
123 1 10.076264 19.736470 2.072234 0.01628237 0.01625793 -0.03670528 -704.52306720 -190.91893333 -221.02651284
124 1 5.003348 0.944262 16.887621 -0.05605542 -0.02198573 0.02583769 0.00002752 -0.00003641 -0.00004665
125 1 26.391263 10.439975 18.095612 0.00208659 0.00354953 0.00650536 -0.00044143 -0.00021631 0.00140804
126 1 16.013922 1.217081 23.433856 -0.01025652 -0.01064371 -0.01827074 -0.00039513 0.00048501 0.00100909
127 1 14.672587 31.716675 20.175889 -0.02352724 0.01122248 0.04704779 0.18856816 0.04717255 -0.03795552
128 1 16.849532 7.204817 26.400142 -0.04117452 -0.00356479 0.00447611 -811.10280255 3788.65903339 2828.51138746
129 1 0.804313 0.295666 27.228970 0.02200160 0.02582686 0.00303751 -0.00043315 0.00003144 0.00023037
130 1 30.691973 17.657530 26.120147 0.03097895 -0.00921142 0.00375603 0.00014878 -0.00011024 -0.00020900
131 1 3.111195 16.802599 7.873788 -0.03148054 -0.05665808 -0.01657946 -0.00027099 0.00000230 -0.00013230
132 1 28.726176 21.529983 24.861157 0.08158736 -0.00241398 -0.02857995 -0.00002565 -0.00001653 -0.00009483
133 1 30.617792 7.168461 29.933180 -0.01273579 0.02124622 -0.00974563 -55842.19316096 10342.85566548 -69761.39553866
134 1 27.385803 3.194245 4.240812 -0.01691952 -0.00533108 -0.00678473 1111.67378286 1819.95912554 -3034.73719428
135 1 20.929158 14.303592 13.401184 -0.02226965 0.00890032 -0.05971103 0.00157955 -0.00032208 -0.00072540
136 1 15.544986 29.732859 18.348324 0.00961571 -0.00542838 -0.05113046 7404.53689921 -2361.52137660 -4100.56926890
137 1 14.806705 25.189185 13.542192 0.01090277 0.02419965 -0.00183526 0.00013528 0.00005075 -0.00004330
138 1 16.443420 16.451207 7.555023 0.04346795 0.00607340 0.01334399 -0.00018382 -0.00011830 -0.00006204
139 1 10.335347 23.716980 21.788206 0.02695957 -0.00452748 -0.01673261 -0.00016182 0.00015378 -0.00018940
140 1 8.382542 28.857675 22.463728 0.01012741 -0.06242697 0.06430838 0.00004452 -0.00017719 -0.00001232
141 1 28.494356 13.012220 12.182063 0.01420016 -0.03146014 -0.01520898 -0.00066515 -0.00156213 0.00206283
142 1 6.030865 0.098907 10.626104 -0.00974172 0.01221279 -0.00771695 0.00019042 0.00096891 0.00029705
143 1 29.566643 18.546806 25.456151 -0.02797366 -0.03483547 -0.02219398 -0.00006410 0.00001339 -0.00009785
144 1 6.012845 19.209835 22.381282 0.00636821 -0.00070155 0.00250054 -0.00004849 0.00006332 0.00004548
145 1 23.963153 25.544036 16.010646 0.00098389 -0.01255058 -0.01556926 -17.00124336 3.01223825 379.63272834
146 1 16.273342 31.898460 12.564055 0.05212968 -0.01289867 0.00408822 -0.00001548 0.00004494 -0.00005630
147 1 7.600545 28.102860 11.546559 -0.01847676 0.00092546 -0.02019656 -989.87130501 -886.79183403 -1338.06460316
148 1 26.644993 7.974456 25.849563 0.01530802 0.00588747 0.00152081 -0.00032505 0.00020885 -0.00015835
149 1 11.748264 21.293823 17.982879 -0.02430535 0.01279366 0.02169551 0.00004772 0.00006120 -0.00012909
150 1 28.372632 22.801813 6.933664 0.00880954 0.01128570 -0.01907009 -0.00056287 0.00032216 0.00013555
151 1 32.053634 8.415952 14.092551 -0.01436195 -0.01038332 -0.02141051 0.00037390 -0.00034139 0.00063060
152 1 8.399551 14.280241 5.678799 0.03675356 -0.00261569 0.05050896 12993.51787958 13256.70536511 -10159.27185317
153 1 14.352595 15.392085 15.356476 0.06393725 0.00041702 -0.01250872 0.00180648 -0.00013704 -0.00039002
154 1 11.614815 6.454110 18.202614 -0.00445073 -0.04070582 0.06919082 377.78490644 174.96705820 -844.82848422
155 1 32.580477 12.729689 0.049791 0.00679445 -0.01664122 0.04104243 -104072.01259071 -18119.59408555 -20545.66157124
156 1 9.034216 7.680198 17.337415 0.01580739 -0.04013296 0.00502257 -31.25954993 64.40872417 21.35591533
157 1 23.607420 17.782215 17.159601 -0.03148680 0.03231850 -0.06471981 0.00009038 0.00012372 -0.00003110
158 1 32.697628 32.402901 27.530632 0.05229755 -0.01976127 0.02255654 -0.00018335 0.00002172 -0.00000334
159 1 15.696439 30.954338 12.711419 0.03448257 0.03187106 0.00446240 -0.00006192 0.00020301 -0.00014455
160 1 29.804512 18.918463 22.401602 0.02109365 -0.03327096 -0.01703619 0.00010899 -0.00004304 -0.00005392
161 1 26.763060 17.940701 8.517061 -0.00752357 0.04472459 0.02520390 0.00011286 -0.00001259 -0.00012441
162 1 19.277744 18.693066 3.745789 0.00051098 0.01695465 0.01669258 302924.01221870 265206.93850138 541690.00075237
163 1 23.156832 24.678482 9.043535 0.02648605 -0.07676679 0.01670343 0.00002615 -0.00001627 -0.00004716
164 1 16.210239 21.105216 16.779929 -0.00737315 0.01224681 -0.06763388 -3958775.50839187 -2934325.97023540 -585815.71998274
165 1 24.722084 16.618659 29.051624 0.04943152 0.03197254 -0.00028995 0.00036705 -0.00017195 -0.00010034
166 1 32.404989 21.746649 22.257233 -0.02835277 0.07477980 -0.00679585 -0.00005224 -0.00031732 -0.00014737
167 1 7.700855 27.580307 12.844849 -0.01918033 0.03219125 -0.01718490 -29.03451412 151.25567269 -375.79627768
168 1 18.924643 21.023080 28.879390 0.01419864 0.06282830 -0.02400054 0.94799493 -0.33727263 -0.32412572
169 1 23.510480 3.551045 5.887413 0.00177104 0.03084233 -0.00179057 -0.00124426 0.00006441 0.00055042
170 1 17.509766 20.071492 27.780005 -0.01622933 0.00998710 -0.04060052 -2.45757559 -1.25585820 -2.52300491
171 1 3.149662 1.415040 17.053432 0.01087754 -0.03821168 0.07009356 0.00004669 0.00001312 -0.00013608
172 1 21.486053 25.840735 14.285184 0.03668108 0.03362992 0.06030016 0.00281428 -0.00023818 0.00200990
173 1 12.362967 17.984734 9.488907 0.03480353 -0.02198729 0.04042083 0.00037244 -0.00008908 0.00015766
174 1 28.928508 28.735844 24.942738 0.03135586 -0.07607089 -0.00297188 0.00011408 -0.00011355 -0.00013510
175 1 14.849844 28.176037 30.283854 0.00912254 -0.03736580 0.03301353 -0.00003132 -0.00014921 -0.00006704
176 1 2.784578 26.582934 5.421616 -0.06975580 -0.06175022 -0.04326640 -0.00019399 -0.00000221 -0.00041581
177 1 30.645544 17.848836 20.431112 0.01251890 -0.03522345 -0.04051941 0.00007939 0.00009875 -0.00003246
178 1 11.858443 2.875440 28.960677 0.00613019 0.00935259 0.04511369 0.00031064 0.00026431 -0.00052783
179 1 24.131661 14.529782 20.071407 0.01555189 0.03937415 -0.04296985 0.00010667 0.00012252 0.00007863
180 1 24.387451 5.380029 28.793483 0.02260308 0.04141839 -0.01851534 -0.00019598 0.00005301 -0.00007693
181 1 11.864844 17.995003 4.682857 -0.04998604 0.02228670 0.03676105 0.00135186 -0.00092953 0.00165479
182 1 13.035895 1.769795 24.228586 -0.06107468 -0.00122072 -0.01308381 -0.00005491 0.00002593 0.00009744
183 1 6.818618 4.762915 21.452813 -0.08957568 -0.01320419 -0.06770356 0.00000226 0.00012746 0.00016434
184 1 32.159098 26.233637 15.781323 -0.05256077 -0.01562473 0.01741317 0.00019586 -0.00006240 0.00001822
185 1 11.102146 13.015493 8.263904 -0.03902485 -0.01989913 -0.01184551 0.00124825 -0.00022635 0.00105393
186 1 12.360448 8.777652 20.322096 0.00680875 0.00495424 0.00302511 0.00089179 0.00122967 0.00138530
187 1 19.093902 16.140221 28.536933 0.01176336 0.03933596 0.03655872 -0.00007211 -0.00107443 0.00015908
188 1 13.323400 30.926925 32.535310 0.00677313 0.00699335 0.01008445 0.00033087 -0.00059460 -0.00011399
189 1 21.877858 0.878657 1.737445 -0.02135770 -0.04562366 -0.01771708 0.00055736 0.00069629 0.00058471
190 1 11.546592 30.953770 8.854659 -0.01286788 -0.03650533 0.00061576 0.00013724 0.00014188 -0.00010145
191 1 18.375769 16.203589 20.177369 -0.02752121 -0.02910541 -0.01711808 0.00064131 0.00000443 0.00029299
192 1 24.376845 13.921797 23.634799 -0.03191127 -0.05227126 0.04344706 -0.00000361 0.00008040 0.00000849
193 1 17.396566 12.450963 6.583537 -0.01330488 0.06461328 -0.08266194 -0.00041192 0.00002310 0.00020707
194 1 5.188447 22.011005 18.991992 -0.01282903 0.00574504 -0.02272483 -0.00021946 0.00001583 0.00013365
195 1 16.399282 31.631571 23.693016 -0.00202329 0.04123966 -0.05449951 15.23989233 12.44009118 -25.62939159
196 1 0.195678 18.212242 15.314696 -0.07043411 -0.01734364 -0.01385010 0.00009512 -0.00002840 -0.00005367
197 1 26.715013 16.625918 9.197848 -0.08429236 -0.01965771 -0.01985490 73.91783431 -30.24698873 206.01779211
198 1 5.064909 0.374189 26.636317 -0.01532274 -0.00465818 -0.00678088 2.44635646 12.05770034 -17.29305752
199 1 32.615599 27.429677 5.628536 -0.02911011 -0.00622464 -0.03305566 -0.00000581 0.00006112 -0.00004998
200 1 23.774755 1.655250 23.875360 -0.04314849 0.00096316 -0.05510302 0.00017135 0.00007226 0.00003887
201 1 22.446441 9.624895 17.131713 -0.06807710 0.01345776 -0.02898480 -0.00015149 -0.00001402 -0.00002730
202 1 28.244298 22.580852 14.769539 0.02027822 0.01403582 -0.01660944 0.00013193 -0.00021588 0.00009730
203 1 25.910251 13.577007 27.922469 0.01915083 0.00527831 0.06849773 -2.06380780 -16.18236821 41.93204670
204 1 27.546940 3.474094 12.134155 -0.01380643 0.00605071 0.00305137 0.00003778 -0.00000693 0.00021345
205 1 24.750652 32.125687 23.145891 0.00066340 0.02449490 -0.03326501 356.55119383 -419.89844772 1038.58689281
206 1 0.876410 31.882178 32.458257 0.00561345 0.03297034 -0.02194309 -0.00006339 0.00015822 0.00000831
207 1 26.743866 1.126978 22.058922 -0.01304299 -0.00216500 0.04194210 -213502.25925293 192510.11544478 -27319.15881112
208 1 4.257547 13.031938 25.759544 -0.02542269 -0.00029218 0.00253732 -0.00039674 -0.00007206 -0.00004655
209 1 27.938071 11.984493 9.127340 0.00529109 0.04951002 -0.05218402 -0.00122946 0.00177041 0.00008166
210 1 27.910594 3.192846 14.019756 0.00322295 0.01294047 -0.05138130 -0.00008536 -0.00008489 -0.00006506
211 1 2.863614 20.858914 2.824321 -0.04709672 0.05192125 0.00349857 0.00196003 -0.00048610 -0.00099709
212 1 24.115091 14.407257 6.005636 0.01689395 -0.04761747 0.02055012 0.00074982 0.00105095 0.00042340
213 1 26.320819 23.896487 19.445620 0.03084856 0.04375088 -0.01009682 0.00052088 -0.00011610 0.00068364
214 1 6.803038 20.919210 5.331295 -0.00892390 0.03645191 -0.02518352 -0.00082759 -0.00013389 -0.00028890
215 1 14.656794 31.191450 32.675721 -0.02853427 0.04408303 -0.04745662 -0.00042741 -0.00021559 -0.00017896
216 1 16.884361 24.730390 9.341548 0.01586859 -0.03028505 -0.03920085 0.52966213 1.36005891 0.07429861
217 1 8.792245 23.595051 13.502921 -0.02324958 -0.04614114 0.00431458 0.00028307 -0.00008256 0.00091782
218 1 4.583397 22.447798 30.800821 0.00389263 0.00619002 -0.00454197 0.00013402 0.00007513 -0.00005286
219 1 24.460515 6.960751 15.846647 -0.02075646 -0.03476350 0.04952935 -0.00038998 -0.00023128 0.00002781
220 1 12.844177 6.809935 31.955102 0.03037353 0.03376216 -0.03285884 0.00020347 -0.00004412 -0.00042675
221 1 23.037705 2.394353 12.312351 0.00859730 -0.00897881 -0.05538095 0.00002622 0.00006052 0.00008475
222 1 25.754440 25.264611 6.159314 0.01812364 -0.00286385 0.00260737 -39.02682452 117.07394921 33.42927334
223 1 25.463643 8.327623 8.702411 0.00151512 -0.01865060 0.01322688 -0.00203708 -0.00013014 0.00019976
224 1 11.189123 0.019212 32.285253 -0.03704825 -0.02528125 -0.03691792 -2.77230364 4.07100071 1.99575433
225 1 32.449209 8.632479 10.447446 0.03505759 0.00575342 0.00934913 719916.42821138 -417384.22021869 -250704.38395735
226 1 6.067266 14.310571 24.484924 -0.00218562 -0.01868828 0.01298752 -0.00190813 0.00016047 -0.00030787
227 1 10.987440 12.603110 17.895570 0.01266107 0.02711501 0.01828119 -0.00028513 0.00013281 -0.00021631
228 1 19.705052 15.667072 4.622944 0.03488525 0.03609005 -0.02509817 -0.00078640 0.00011721 0.00022640
229 1 24.076193 3.360904 8.435243 0.00049567 0.03460853 -0.00456165 -0.00022597 0.00006013 0.00016626
230 1 16.014526 16.914203 8.555544 0.02325253 0.01527459 0.06568678 -0.00023852 -0.00000974 0.00014902
231 1 4.833072 18.580273 22.007495 0.00145479 -0.00723557 -0.00680504 -0.00014345 0.00005493 -0.00026319
232 1 21.073488 27.196851 11.639953 -0.00902820 0.04095286 0.00882198 0.00028622 0.00026826 -0.00008243
233 1 0.768086 17.503772 7.533166 0.04557868 0.02417651 0.04992670 0.00010619 -0.00017026 0.00024340
234 1 0.698810 28.682583 10.837450 -0.01944192 -0.02578939 0.03496700 -0.00105411 -0.00004713 0.00022117
235 1 19.838879 27.476932 11.497887 0.02644640 0.02003460 -0.02615767 0.00029881 0.00063147 0.00019506
236 1 12.671332 30.702380 14.652624 0.02117217 -0.04742095 -0.03003408 -4392.92435156 12788.54153988 -4122.35133125
237 1 24.605141 8.648346 14.222959 0.06743151 0.02536360 -0.04704973 -0.00116523 -0.00109731 0.00012511
238 1 5.521608 22.385546 11.737767 0.00727952 -0.01732367 -0.00754481 -0.00066055 -0.00016301 0.00029779
239 1 1.480504 31.234260 21.847766 -0.00726803 -0.00309780 0.04014677 -0.00024606 -0.00007762 -0.00011439
240 1 11.248133 32.388310 17.025587 -0.00288537 0.01948490 0.01308304 747.97619823 -1068.86225319 1429.95496311
241 1 25.054740 13.617471 3.161727 0.04303495 0.01336553 0.02508426 0.00201852 0.00093130 -0.00103454
242 1 23.160586 1.378633 4.618979 0.02382651 0.02293795 -0.01418095 -0.00055467 -0.00012434 0.00010820
243 1 25.286222 11.922707 26.132406 0.02771987 0.03294008 -0.05641158 0.03776763 0.10013136 0.10810792
244 1 10.325534 12.764874 12.903073 -0.01194418 -0.00075396 -0.03160911 0.00033795 0.00236538 0.00068251
245 1 8.493651 31.261806 29.930408 0.00876344 -0.00158405 -0.04850769 -0.00023186 -0.00058511 -0.00012552
246 1 22.171650 17.212879 13.922811 0.00207332 0.02409272 -0.04749789 -2317582.86492594 1133926.98879206 -2731993.56617266
247 1 19.253700 12.650838 1.500482 0.01008775 -0.03214886 -0.01171128 -0.00062795 0.00012933 -0.00074311
248 1 26.284777 15.611029 0.379477 -0.04176875 -0.03745177 0.04077948 -0.00021011 -0.00018638 0.00012317
249 1 11.220378 18.225081 4.108255 -0.00481823 -0.00617368 0.00365681 -0.01195691 0.01597357 -0.02142629
250 1 26.983431 13.818726 14.886924 0.02403601 0.04149790 -0.03774305 0.00262738 -0.00918945 -0.00145336
251 1 8.379615 14.221548 16.072241 0.03837059 0.02149996 -0.01275604 0.00024776 -0.00022514 0.00052047
252 1 8.144149 29.777146 30.230803 -0.00513926 0.00326367 0.03164544 -0.00000791 -0.00009424 -0.00001666
253 1 18.153446 30.956714 18.169188 0.08460334 0.02636486 -0.01775748 -0.23388805 0.25956707 0.30251296
254 1 28.964600 31.025587 16.810667 0.01733703 0.01033983 0.01730702 0.00009944 -0.00016667 -0.00007044
255 1 32.061360 13.984153 2.044707 0.01110917 -0.01061213 0.03655188 -0.33384915 -0.14214752 -0.30687103
256 1 20.256337 15.993526 11.134508 -0.03646134 -0.06394711 0.00693356 -0.00116493 -0.00067353 -0.00209485
257 1 14.111052 31.173586 5.958801 0.00946618 0.01311060 -0.05082666 0.00015118 -0.00001829 -0.00008977
258 1 10.567798 14.396683 19.062252 0.00063301 -0.01182312 -0.02683316 -6.03704356 1.71874045 -1.23837947
259 1 29.069735 7.995148 13.586296 -0.04540093 -0.02133685 -0.02863717 0.00010344 -0.00253782 0.00061322
260 1 17.860409 0.401399 1.830686 0.03840271 -0.00000421 0.01485343 -0.00072991 0.00096277 0.00154141
261 1 22.475863 22.680923 5.965168 0.01043262 -0.03690148 -0.03010729 695.10080713 898.77040743 -1756.03432388
262 1 3.986874 25.658269 21.104601 0.04240867 -0.01082211 -0.03374076 0.00014411 -0.00010932 0.00011426
263 1 20.386226 25.598199 27.688172 0.01924533 -0.02191462 0.01930033 0.00004646 0.00015125 -0.00013287
264 1 28.965311 32.085404 7.696371 0.01436072 0.01204267 -0.00908424 -0.00006437 -0.00014979 0.00029988
265 1 20.794785 4.908723 24.605398 0.00681853 0.02654719 0.04723793 0.00042090 -0.00000772 -0.00009398
266 1 14.756124 30.647631 13.905010 -0.00234868 -0.00432655 0.04876201 -0.89105799 0.02355272 0.31865884
267 1 21.931395 15.405710 7.012462 -0.01056007 0.01075679 0.00283365 -0.00021071 0.00082501 0.00098995
268 1 0.056796 6.350975 29.333424 0.03965701 0.01995507 0.03098134 -0.33077029 0.12616583 0.09273041
269 1 9.701910 23.399287 11.945162 -0.04908129 0.01833025 -0.02079126 -0.00016863 -0.00046207 -0.00083903
270 1 8.039946 2.540115 26.103595 -0.01145503 0.01653329 -0.01061905 -0.00006749 -0.00004083 -0.00006794
271 1 11.585981 14.785371 5.743462 0.08063900 0.01742251 -0.01798967 0.00139304 0.00013613 -0.00000022
272 1 5.618743 14.737131 31.246500 0.04570927 0.03109872 0.00408043 -0.00210296 0.00067100 0.00088391
273 1 7.769608 24.123762 32.417472 -0.02478232 -0.02126531 -0.01405009 -0.00017216 0.00026134 -0.00021941
274 1 3.566919 13.253080 20.031956 0.02093494 0.00130979 0.00257526 -134.05912035 65.12094459 20.68601254
275 1 3.177618 4.800611 24.673575 -0.02793176 0.00700297 -0.05474090 -0.00078802 0.00134600 -0.00017935
276 1 30.183813 6.226385 17.882871 -0.03091199 0.05143987 0.02879523 0.00008976 -0.00010005 0.00003621
277 1 6.192350 21.774629 8.270463 -0.00561067 0.05928212 0.00957021 63.35691199 103.24992807 -137.74056621
278 1 21.651246 15.961332 4.276961 0.02288873 0.03930066 0.02372380 0.00125287 -0.00006898 0.00005828
279 1 18.216822 32.349612 28.125590 0.00590512 0.01455478 0.01482696 -0.00031744 0.00036871 -0.00082563
280 1 30.184832 21.363824 17.691800 -0.02140158 -0.01370032 0.03661323 -0.00006762 -0.00011758 -0.00002693
281 1 7.145465 7.130357 2.136481 -0.00903236 -0.03566619 -0.00564820 -0.00196292 -0.00107674 -0.00119271
282 1 16.458441 16.150537 24.769347 0.00035631 -0.04079813 0.07922392 0.00051103 -0.00229963 -0.00079996
283 1 13.998810 2.251444 5.763863 -0.00478164 0.02642140 0.03514351 0.00017698 -0.00012657 -0.00003740