ITEM: TIMESTEP
0
ITEM: NUMBER OF ATOMS
3656
ITEM: BOX BOUNDS pp pp pp
0.0 39.062332
0.0 39.062332
0.0 39.062332
ITEM: ATOMS id type x y z vx vy vz fx fy fz
1 1 26.802939 30.788598 6.748159 0.06375399 -0.03550395 0.01764063 0.00002404 -0.00005829 -0.00002247
2 1 20.095854 31.299348 12.653861 -0.01419994 0.02026871 0.01177288 0.00007107 -0.00004832 -0.00004182
3 1 11.370562 37.331906 34.600736 -0.04804159 0.00344014 0.00987108 -0.00001398 0.00009162 0.00021682
4 1 11.747490 1.930420 16.015239 -0.02811974 0.02722021 -0.03142512 0.00006109 -0.00023174 -0.00000455
5 1 12.993200 12.631047 5.485871 0.03680826 -0.02478919 -0.06949603 -0.00012303 -0.00005522 -0.00007936
6 1 21.302866 1.061335 0.511715 0.01166432 0.01933661 -0.01974442 94.17249763 111.61909610 -10.75799899
7 1 26.623159 37.889319 19.995891 -0.02437456 0.02655680 0.01601559 0.00007178 -0.00000768 0.00000736
8 1 35.126063 3.182974 6.567782 0.04276690 -0.00761308 0.03150656 -596.87258631 1289.32745608 1833.74479861
9 1 28.667044 30.362454 7.855431 -0.01893256 -0.00025642 -0.03407963 -0.00006077 0.00001626 -0.00021268
10 1 9.375513 38.355364 27.943198 -0.03287964 -0.08575894 0.01826449 0.00017526 -0.00017479 0.00014626
11 1 24.399872 6.706374 30.246242 -0.02452407 -0.00634797 -0.01061522 -0.00004331 0.00006292 -0.00000740
12 1 15.098424 21.182611 32.476804 0.07828536 0.00648410 0.01842627 0.00001587 0.00015243 -0.00005930
13 1 31.063967 7.701825 28.533193 -0.01672713 -0.03728228 -0.02601623 0.00013076 0.00001329 0.00003537
14 1 33.340904 14.258522 4.053497 0.01028990 0.00556935 -0.02184107 0.00011940 0.00000487 0.00009139
15 1 14.542669 24.122002 29.927982 0.00128541 0.01958723 -0.01837906 -0.00018819 0.00003518 0.00014903
16 1 22.576691 32.056115 10.917270 0.01210395 0.04831032 -0.01182897 -0.00001855 -0.00003100 0.00005420
17 1 32.966400 16.306290 34.292124 0.06016955 0.05461493 -0.01703171 -0.00025409 0.00008806 0.00013387
18 1 13.110760 6.472290 30.834569 -0.02594164 -0.02233620 0.03408376 0.00012236 0.00002465 -0.00005942
19 1 7.629453 6.420806 15.832026 -0.04349508 0.04353834 0.01699438 42.18935460 -34.56617463 8.14776423
20 1 30.645842 8.986941 37.811564 -0.01253394 -0.00006830 -0.04529813 -0.00008554 0.00002119 0.00004775
21 1 3.453391 14.665925 14.866901 0.03693967 -0.02095721 0.01255174 -94.92105592 -73.45740976 -10.61584122
22 1 36.014631 34.856314 22.051945 0.02430983 -0.01493322 0.02016895 -0.00001638 -0.00024957 0.00009686
23 1 3.001140 5.845276 30.403700 -0.03462588 0.04101568 0.02631897 -0.00007238 -0.00006616 0.00009884
24 1 8.971808 10.624974 22.612116 0.05515996 -0.03111702 -0.02567085 -0.00009810 0.00003407 0.00003176
25 1 30.028010 23.705759 27.257804 -0.01388790 -0.07748092 0.01672924 -409.31396323 -2883.32537356 3077.13963236
26 1 15.358508 15.798609 5.468203 0.07653578 -0.01175160 0.01134148 -0.00003524 0.00006088 0.00004469
27 1 22.434230 17.040389 20.190068 -0.01147763 -0.03443231 -0.02284324 -0.00006590 -0.00022627 0.00005215
28 1 13.943532 34.085008 34.771333 -0.01356567 -0.06877638 0.01849833 0.00002229 0.00018954 -0.00010111
29 1 0.891430 21.225711 5.246628 0.01544479 -0.00613059 0.00125359 -0.00000731 0.00005908 -0.00017927
30 1 15.891646 11.031920 2.516514 -0.00983297 0.02941923 -0.05821744 -0.00001531 -0.00019024 -0.00014171
31 1 11.596978 31.394299 20.156816 -0.04096054 0.00516264 -0.02478630 -0.00015498 -0.00012928 0.00017194
32 1 33.632542 24.565796 30.211402 -0.04530330 -0.01952941 0.06693431 0.00058158 0.00007351 0.00043467
33 1 25.961154 10.875039 18.615609 0.01443972 0.06697499 -0.00654890 0.00001340 -0.00023231 -0.00019173
34 1 14.714619 0.308304 35.123224 -0.00238568 -0.01018913 -0.02677585 -0.00003607 -0.00007770 -0.00002612
35 1 30.153242 26.979007 21.160695 0.01962603 -0.01689516 0.02915622 -0.00003471 -0.00006886 -0.00004021
36 1 28.456904 7.510944 2.742583 -0.01144609 -0.02154270 0.00193807 0.00003544 -0.00005944 -0.00013107
37 1 5.107016 11.026791 8.510030 0.01397328 -0.01186466 0.02031313 0.00012006 0.00003179 -0.00004266
38 1 24.237103 9.532636 3.797520 -0.00221071 -0.00836662 -0.04785424 -0.00011381 0.00004754 0.00006003
39 1 3.205854 28.583268 22.574395 0.06834206 -0.08407751 -0.04007274 -108.32528246 -123.31512688 10.56455757
40 1 29.901810 4.170408 3.128200 0.00719697 -0.00917793 0.00678503 0.00001424 -0.00005610 -0.00011205
41 1 6.003224 25.496510 28.597136 0.00208282 -0.00351380 0.02400313 -0.00004750 -0.00003536 0.00011018
42 1 17.143793 17.232080 0.788957 0.02532574 -0.00318865 0.07394675 0.00017742 0.00007338 0.00002111
43 1 27.277314 20.425590 27.479458 -0.03216551 0.04610144 -0.02470183 -0.00066723 -0.00073665 0.00002336
44 1 17.384321 30.860954 7.962875 0.00882690 -0.01512446 0.01476224 -0.00015753 -0.00004752 -0.00000792
45 1 9.072468 17.604514 0.114454 0.05424828 0.05110204 0.03935478 0.00001900 0.00004232 0.00004961
46 1 37.337387 27.912391 21.174827 0.05447103 0.03500381 0.05750270 -0.00017486 -0.00003910 0.00000620
47 1 17.128282 38.798618 27.649143 0.01293031 -0.01914262 -0.01920230 0.00004420 0.00016405 0.00005872
48 1 6.740758 36.217050 24.766287 0.02443449 0.02529106 0.00111613 -0.00014973 -0.00012796 0.00002604
49 1 37.188356 10.510466 6.054029 0.02394491 0.00749150 -0.03115392 -0.00007792 0.00004882 -0.00007482
50 1 38.951792 9.209375 1.803610 -0.00021179 0.01604435 -0.03441185 0.00014118 0.00001902 -0.00010154
51 1 34.467697 24.522212 19.223280 0.00231853 0.02248912 0.01562282 -23.95796395 -31.98704775 -3.09198672
52 1 33.902122 3.025553 19.604646 0.04936227 0.02524932 0.03699358 -0.00000280 0.00002504 0.00003753
53 1 4.654807 32.999243 38.831077 -0.02287241 0.00832792 0.03237915 0.00007527 0.00003644 -0.00005591
54 1 37.119166 0.574134 18.182604 -0.01506592 -0.02127553 -0.03170023 -1234.22077606 -2249.99121016 -3253.69633692
55 1 35.288776 9.967720 17.516293 0.02215720 -0.03065416 -0.05733292 -0.00001960 -0.00005092 0.00000310
56 1 17.703899 26.785432 24.017012 0.01443563 -0.03077839 0.02020425 0.00002772 0.00006585 -0.00002293
57 1 29.024820 19.711208 26.706668 -0.03274297 -0.00804703 -0.00167829 -0.00021217 -0.00120949 -0.00031392
58 1 16.449904 17.268407 24.997197 -0.01158994 0.04659640 0.04125047 0.00016377 0.00034724 -0.00011279
59 1 7.163727 18.607056 36.769085 0.01694141 0.02634228 0.00722344 -0.00016839 0.00001497 0.00004864
60 1 31.767664 37.248225 0.556432 -0.03990357 -0.00258772 -0.06735202 -0.00003120 -0.00002391 -0.00002341
61 1 21.300042 27.836498 17.216391 -0.01261825 -0.02563618 0.02285426 -0.00000402 0.00001799 0.00005665
62 1 27.479469 28.471359 1.119003 0.01291484 0.01992856 -0.02435287 0.00003148 -0.00014089 -0.00003355
63 1 1.316161 6.891603 3.488228 0.02672045 -0.03891366 -0.01196951 0.00009323 0.00009246 -0.00012822
64 1 34.040995 12.865428 13.546164 -0.01241472 0.02412288 0.01132779 0.00007981 -0.00011157 -0.00004617
65 1 14.975335 1.187358 31.589551 -0.04551662 0.06533730 -0.04186818 -0.00009238 -0.00001309 -0.00004862
66 1 4.567883 34.238922 37.976357 0.00059357 -0.03367774 0.04144885 -0.00008346 0.00007778 0.00008835
67 1 33.648369 28.759748 23.981252 0.01132884 -0.02399153 -0.01197379 -0.00017255 0.00001404 0.00003441
68 1 10.671380 22.708210 10.727880 -0.00295407 -0.04047214 -0.01768859 -174.65617966 141.68903381 -110.53218986
69 1 2.937678 12.580067 4.849596 -0.02882233 0.01833324 -0.00646374 -0.00021291 -0.00012395 -0.00006161
70 1 21.817789 29.842752 31.200338 0.03624543 0.02044906 0.04362344 0.00004261 0.00008585 -0.00010091
71 1 22.192783 19.732970 22.216492 -0.00385702 0.04491148 -0.00224095 0.00003353 0.00006889 -0.00002639
72 1 31.560783 32.068897 30.738258 0.03904604 -0.00866830 -0.01346991 0.00002067 -0.00027184 -0.00009807
73 1 16.576633 36.403865 15.655478 0.00444557 0.01757393 0.01038243 0.00008916 0.00019311 0.00004343
74 1 8.488533 10.401795 21.553644 0.02309909 0.05024993 -0.01655461 0.00014857 -0.00008323 -0.00000376
75 1 24.978154 27.027044 2.207418 -0.01730156 0.02492662 -0.06976690 -0.00008398 -0.00003255 -0.00015659
76 1 15.335155 3.724319 25.166927 0.02878004 0.04186695 0.02292141 0.00008366 0.00006791 -0.00004084
77 1 23.315032 31.590785 20.783733 -0.01941787 -0.03003726 -0.06528734 -1137.13482640 -849.81131504 492.89643183
78 1 22.479876 33.235386 2.474683 -0.02121332 -0.00426275 -0.01240444 -0.00009857 -0.00010307 -0.00000264
79 1 12.807070 17.385841 2.257894 -0.04557373 0.02159276 0.02921443 0.00014756 -0.00004709 -0.00000408
80 1 3.813864 15.783327 16.301099 0.02119780 -0.02120027 -0.04346779 -31.97274359 -196.12464440 413.99073331
81 1 0.718016 34.172252 7.475602 0.00263090 -0.02390908 0.03482851 0.00009319 0.00001615 0.00014517
82 1 22.375994 2.904437 14.724356 -0.06636587 0.08302659 -0.00862225 0.00010048 0.00006233 0.00011415
83 1 29.325913 13.653549 6.526249 0.00768130 -0.00316473 -0.04633483 0.00007008 -0.00001686 -0.00008839
84 1 31.119131 38.673517 29.008541 -0.01208023 0.03897161 0.03690625 0.00007904 0.00002461 0.00003458
85 1 34.105545 5.755017 25.472948 0.00679477 -0.00165677 -0.00145152 0.00006576 -0.00001779 -0.00000658
86 1 23.592003 22.219820 37.288029 -0.00169743 0.00097009 0.01349248 0.00005863 -0.00003303 0.00018593
87 1 16.377237 26.272741 4.668716 0.04858899 0.01509875 -0.01692359 0.00002518 0.00017182 0.00005745
88 1 22.976128 23.573055 8.759712 0.03349441 0.00686877 -0.00711461 0.29130280 -0.09961079 -0.12416099
89 1 22.783664 17.924953 12.839801 0.00091338 -0.02596641 0.02358475 0.00007602 0.00001178 -0.00010005
90 1 22.492341 4.715157 18.414805 -0.03374923 -0.01514287 -0.00123496 0.00002160 0.00001516 -0.00003814
91 1 21.594203 36.611572 18.022336 0.03616915 0.00511538 0.00014882 -0.00000038 0.00014398 -0.00012495
92 1 7.683531 32.851424 4.619482 0.02590220 -0.01900944 -0.03359996 0.00017991 -0.00004756 0.00012945
93 1 4.288356 8.308472 29.015751 0.04794231 -0.00445734 -0.07074259 -0.00011662 -0.00000377 -0.00014653
94 1 35.640651 31.891330 11.047402 -0.00697335 -0.00106762 -0.01930834 -0.00012768 -0.00004083 -0.00004381
95 1 7.744645 4.310944 17.483680 -0.03237629 0.00650166 -0.05414020 -0.00233714 0.04344493 -0.03405948
96 1 7.439145 24.948997 16.027059 0.03824928 0.00894175 0.04744581 38.94529636 85.71513268 -98.67769533
97 1 2.416603 22.972801 4.733319 -0.03060725 -0.00704602 0.00475248 0.00001100 -0.00011471 0.00009635
98 1 3.667451 23.903680 3.644863 0.03571881 0.03585814 0.04415088 0.00009474 -0.00000458 0.00014091
99 1 28.534350 27.788321 31.064266 0.01118905 0.03510401 -0.01455058 -0.00014083 0.00016087 0.00015258
100 1 18.798447 14.760084 38.360850 0.04316112 -0.01051729 -0.00032902 -0.00008820 -0.00001811 0.00010137
101 1 28.750463 21.926547 20.194818 0.00566365 0.02791629 -0.00279532 -0.00005264 0.00012353 -0.00000525
102 1 32.818628 8.034594 20.476599 -0.01079505 -0.01514824 -0.00378852 -0.00005299 0.00004916 0.00012635
103 1 25.003631 2.399341 35.164167 -0.01994614 -0.04427708 -0.05021064 0.00000118 -0.00006261 -0.00015582
104 1 14.593896 12.285586 6.022157 -0.04002948 0.03226715 0.00328430 -6581.20974346 14055.45323761 1195.30260696
105 1 34.517779 25.012945 22.334060 0.01831879 0.04431357 0.00299816 -0.00005085 0.00026990 0.00015368
106 1 9.926067 14.511554 24.257792 -0.00506466 0.03404423 0.06025501 0.00015268 -0.00000377 0.00005803
107 1 22.121197 7.239042 31.320202 0.04226828 0.00353318 0.01107075 -0.00010138 0.00011556 -0.00007287
108 1 18.114732 12.839265 1.994280 -0.00919124 0.04056728 -0.04315141 0.00011550 0.00007137 0.00004530
109 1 34.412715 17.977252 24.508181 0.00562576 -0.04921103 0.02961151 -0.00007718 0.00004589 0.00002559
110 1 2.890645 11.039086 7.293778 0.05880144 -0.02405979 -0.01208009 -0.00007110 -0.00005314 0.00008976
111 1 16.267758 25.817084 33.885103 -0.02170560 0.00452280 0.00042599 0.00014537 0.00000631 0.00008758
112 1 36.323225 25.105975 32.572906 0.02656416 0.00393931 -0.04500589 -0.00006084 -0.00000257 -0.00001546
113 1 9.545161 4.004243 0.144607 0.02309038 -0.04236603 0.03657788 0.00001625 -0.00014409 -0.00007040
114 1 18.123989 18.451029 24.988572 0.00408110 0.01663719 -0.00353480 -0.00011873 0.00015564 0.00004069
115 1 18.310121 34.729301 0.109894 -0.03189632 -0.03374051 0.01482968 -0.00001728 -0.00019459 0.00002133
116 1 1.541103 21.693822 11.767547 0.02149936 0.03118807 -0.00198169 0.00008818 0.00003620 -0.00004406
117 1 27.431510 18.975725 32.713121 -0.02038673 0.01717650 -0.08774940 -0.00003207 -0.00023434 0.00006393
118 1 35.152909 31.668435 10.406464 0.00235658 0.03433632 -0.01515240 -0.00013911 -0.00009072 0.00006890
119 1 9.064284 35.352718 29.366351 -0.05022655 -0.06247233 -0.00439610 -0.00014270 -0.00012055 0.00018740
120 1 7.400081 0.320098 3.885851 -0.04543337 -0.01660227 0.00524059 -0.00000666 -0.00011840 -0.00000249
121 1 22.274098 8.382455 0.547624 -0.05331382 0.01335479 -0.02917293 -0.09605168 -0.09722115 0.11983227
122 1 19.868964 10.465767 8.714615 -0.05477699 -0.04062539 -0.01664396 0.00012896 -0.00005961 0.00008532
123 1 19.913012 18.389135 16.181603 0.03998032 0.06899660 0.03828995 0.00010453 -0.00000844 -0.00003765
124 1 20.149578 3.867814 0.107002 -0.00477044 -0.02536046 -0.01883004 0.00066265 -0.00248392 0.00056965
125 1 24.716424 0.903706 12.208472 -0.01839871 0.00947306 0.03267122 -0.00003957 -0.00033448 -0.00002214
126 1 26.209754 17.976445 6.995886 0.00966722 0.03355560 -0.01044511 -3752.36655722 1015.66013202 -5400.08005235
127 1 31.082757 3.733577 23.264088 -0.04705898 0.01554076 0.00357483 -0.00005771 0.00015870 0.00000627
128 1 2.945263 23.769131 16.872411 0.00550731 -0.00795613 -0.05572721 -0.00064751 -0.00007032 0.00022469
129 1 21.955113 7.427253 24.703572 0.01395133 0.00142786 -0.04253216 0.00014321 0.00014827 0.00012227
130 1 18.336327 12.727451 0.905959 -0.07745111 -0.02042932 -0.05493354 -209.04689473 669.51824485 162.40538988
131 1 32.925242 7.106650 2.991153 -0.02240563 0.00342352 0.01277020 -0.00003302 -0.00004006 -0.00005472
132 1 36.230672 18.726380 15.720438 -0.00819695 -0.01800818 0.03940374 0.00010972 -0.00002556 0.00000546
133 1 15.213419 8.436150 9.783970 -0.04222445 -0.00317051 0.02651166 -0.00003886 -0.00007045 0.00018927
134 1 7.616445 28.810847 17.698994 0.00060077 -0.01532648 -0.02258229 0.00011450 0.00116697 0.00038080
135 1 21.464715 31.700704 26.036715 -0.04039568 0.02807430 0.04084778 -0.00005804 0.00003289 0.00020381
136 1 33.003059 18.973143 12.461776 0.02014906 -0.02625872 0.00050469 -0.00003386 0.00002406 0.00019118
137 1 25.988700 16.073037 3.970348 -0.04078163 0.03354114 -0.05281451 -0.00014250 -0.00136246 -0.00198370
138 1 3.839675 1.926934 12.835537 0.06953354 -0.02707410 -0.04160693 0.00000926 -0.00007220 -0.00015360
139 1 23.050708 3.546036 1.160380 0.04265184 0.04064730 0.00747189 -0.00042895 -0.00110531 -0.00020545
140 1 11.846992 8.777399 26.303457 0.02242895 -0.00509527 0.00702503 0.00009171 -0.00004615 -0.00010956
141 1 10.603152 5.158475 28.001412 0.02796767 -0.02457296 0.01049440 0.00002160 0.00008884 0.00001019
142 1 30.915426 22.557214 32.810012 -0.01636547 -0.01200375 0.02309068 0.00002465 -0.00021960 -0.00003955
143 1 27.838038 23.482866 25.221806 -0.01486113 0.02340521 0.02281442 0.00380075 0.00041779 0.00348208
144 1 6.833864 18.921173 24.598940 0.03671239 0.01449329 0.01705216 -0.00015373 0.00002383 -0.00010201
145 1 10.026390 19.347145 9.303978 0.02401496 -0.01046548 0.00789549 -0.00054302 -0.00217231 -0.00086821
146 1 33.884713 12.241521 2.423460 0.05703013 0.02065723 0.01865832 19344281.34249461 -180448924.86738157 19833581.21036410
147 1 22.110872 34.348534 24.106949 0.01141346 0.01187500 -0.00611600 -0.00031612 0.00035105 0.00070512
148 1 14.082209 17.333747 5.656992 -0.03746773 0.03991960 0.00385552 0.00001588 0.00028113 -0.00004079
149 1 20.538196 20.488565 32.319139 -0.00538323 -0.07357660 0.01626103 -0.00002700 0.00000949 0.00002773
150 1 37.154950 10.878090 21.198331 0.00087387 -0.00463794 0.04793496 0.00004630 -0.00004057 -0.00001013
151 1 1.488734 5.366998 36.983712 -0.01116285 -0.01226026 0.00626879 -0.00006466 -0.00016291 -0.00020141
152 1 21.468700 1.003454 24.206082 -0.06112162 -0.00239536 -0.00626381 -0.00001477 0.00011924 0.00004879
153 1 38.612124 18.741945 16.532041 -0.00062404 0.07418700 0.00185283 -0.00042866 0.00023360 -0.00004438
154 1 17.300168 19.857719 33.328265 -0.01075444 -0.00588802 -0.01833970 0.00003689 0.00000160 -0.00004824
155 1 24.659885 23.250425 23.795305 -0.06855959 -0.03301242 -0.03371931 0.00002784 -0.00005617 -0.00005796
156 1 5.874627 35.012860 15.817285 -0.04086407 0.03154621 0.02490919 -0.00007187 0.00018831 0.00003880
157 1 18.138849 14.130876 0.689251 -0.02223235 0.03127948 0.02201256 42.20186985 -299.91820632 46.31145930
158 1 0.102229 31.593360 28.469703 0.00183757 -0.04221220 -0.01984740 0.00003563 0.00010305 0.00004022
159 1 24.369020 25.826663 33.848532 0.01488431 -0.02411438 -0.04232747 -0.00000439 0.00000583 -0.00008798
160 1 27.420331 28.635642 17.790279 -0.00309164 0.04416312 0.04453120 0.00006247 -0.00006635 -0.00002180
161 1 30.323978 27.652634 15.135285 0.03285550 -0.03844682 0.02939839 59279.46823001 -120013.07191191 8939.11900747
162 1 17.510845 36.372796 19.313817 -0.03539094 -0.04004704 0.01216939 -0.00037233 0.00006611 0.00013359
163 1 24.150675 23.114324 20.175442 0.01143856 -0.01084008 -0.06778837 -0.00006617 0.00009994 0.00006579
164 1 34.870037 7.350922 31.075243 0.03659148 0.01986334 0.02842785 -0.00017537 0.00004838 0.00006243
165 1 17.640196 8.556857 1.085192 -0.01279194 -0.03716799 0.00729783 -0.00090467 -0.00120689 0.00017338
166 1 26.042239 0.571924 11.574908 0.02107426 -0.08525085 -0.00072458 -0.00000133 0.00005434 -0.00005640
167 1 7.012345 1.547538 30.195641 -0.00712502 -0.02849124 0.03236284 2.12435515 3.46762407 4.36693623
168 1 33.200951 14.196703 5.767939 -0.05504695 0.03544599 0.02451538 -0.00027779 0.00084697 0.00132820
169 1 31.005957 1.140943 34.816348 -0.00161355 0.01917651 0.03532146 -0.00003353 0.00026238 -0.00006490
170 1 35.025010 29.163046 8.531940 0.02271799 0.03013469 -0.01222667 -0.00022177 0.00017642 -0.00013185
171 1 29.650892 5.914019 2.300483 -0.05143530 0.02725310 -0.00833970 199225.32028696 -5435951.67073686 -2474503.97176505
172 1 10.223275 4.563879 38.485590 0.00897157 -0.00397059 -0.01018216 0.00008415 -0.00005664 0.00004200
173 1 23.648545 9.688180 10.974528 0.08067712 0.00511128 -0.00934386 0.00001049 -0.00019774 0.00013602
174 1 10.830447 26.421926 2.635703 0.04110419 -0.00589598 -0.01239582 -0.00006914 -0.00006815 0.00015344
175 1 19.312577 19.243101 32.764616 0.03501537 0.00062779 0.01890613 0.00011169 -0.00005268 -0.00004755
176 1 28.728785 22.257812 23.623231 0.02559183 -0.03974700 0.05073336 -0.00052607 -0.00054321 -0.00115717
177 1 16.876392 14.370014 24.788250 -0.07076882 -0.02353840 0.03101526 0.00007653 -0.00015034 0.00010249
178 1 3.592430 36.022193 30.540132 -0.11402985 0.03733615 0.00428513 -0.00005059 -0.00025442 0.00005040
179 1 19.292336 7.845388 0.299102 -0.00013628 0.00654803 0.04029987 0.00316420 0.00024485 0.00039484
180 1 29.159596 27.097052 22.667028 -0.00370863 0.00149320 0.02202773 -0.00005814 0.00016275 -0.00007552
181 1 32.118018 20.341859 31.270192 0.00781924 0.06475454 -0.00743213 0.00015262 -0.00026133 0.00024351
182 1 9.237736 22.347160 29.941643 0.02398541 -0.01089045 0.00288440 0.00002523 0.00000678 0.00009060
183 1 35.856526 4.768905 25.133173 0.03789357 -0.01699059 0.03448263 0.00008358 0.00000044 0.00000480
184 1 18.469038 6.141222 29.848082 -0.00948021 -0.03471987 0.01551962 -745.41737905 -148.17429140 -167.84846183
185 1 20.409746 20.715552 0.468819 -0.04946248 -0.02200079 -0.01976287 0.00018763 0.00005087 -0.00014595
186 1 11.616373 30.685824 12.148640 0.01234178 -0.00737161 0.00402361 -0.00002425 -0.00008377 -0.00001025
187 1 2.583333 24.386436 9.429615 -0.01751848 0.00637023 -0.04277423 -0.00004050 0.00004961 0.00002800
188 1 30.960351 7.746026 4.910171 -0.00362954 0.02281337 -0.01517188 0.00075717 0.00124170 0.00187499
189 1 10.910292 8.756356 12.770963 -0.03620369 0.00699127 0.02210123 0.00017997 0.00007092 -0.00043363
190 1 26.879986 35.454090 32.531406 -0.03356524 -0.02084489 0.00170959 -1.93637172 0.40240919 -1.08040501
191 1 33.404752 20.798275 30.219755 -0.06742211 -0.02249557 -0.02012665 0.00010168 -0.00012689 0.00030923
192 1 25.487572 29.477302 13.909027 0.01110986 -0.02075887 0.05947785 -0.00032094 0.00003688 0.00008205
193 1 6.559176 24.203804 9.226085 0.03042345 -0.03018913 -0.00894453 -0.00072923 0.00016700 -0.00019189
194 1 3.593646 22.167885 36.805966 -0.01248133 -0.00130826 -0.00886791 0.00009466 0.00007868 -0.00009515
195 1 18.332932 30.884805 28.029564 0.03712808 0.01783478 -0.02607298 -0.26961938 0.11060222 0.05234215
196 1 22.626263 31.336522 33.474864 0.03514885 -0.00945632 0.03871304 -0.00007664 0.00018297 0.00004300
197 1 33.941053 3.893691 17.075989 0.02635946 0.02628147 -0.01003524 -0.00022970 0.00044548 -0.00005042
198 1 0.076978 3.874467 5.846101 -0.00946724 -0.00877358 0.01390082 0.00126049 0.00033218 -0.00020154
199 1 23.733214 10.375911 4.833700 -0.02410237 -0.01048690 0.00476640 0.00013372 0.00007291 0.00044517
200 1 26.681946 34.843641 27.355571 0.00425911 -0.03195431 0.01953080 0.00001947 -0.00010694 -0.00040864
201 1 13.348585 28.458609 29.491382 -0.02327751 -0.00384187 0.05933873 -0.00021529 0.00007666 0.00008705
202 1 4.729739 22.409213 19.039321 0.02444974 -0.01046611 -0.01692279 7016.35094586 -12333.20921132 -9097.84780532
203 1 11.223953 30.464659 36.021404 0.01477942 -0.03959790 0.03497412 0.00008922 0.00008073 0.00006453
204 1 34.899046 18.963929 29.028863 -0.02964701 -0.08526569 0.01812105 0.00009105 -0.00003056 0.00008971
205 1 17.350433 29.049103 35.666716 -0.02841542 0.05144159 -0.03074576 -0.00000231 0.00010586 -0.00001095
206 1 17.166059 31.324383 14.449290 0.03478900 0.04560116 -0.02250806 -0.00006337 0.00011047 -0.00012235
207 1 8.029185 13.368298 7.347425 -0.00838718 -0.01002598 0.03262845 -0.00005936 -0.00011879 -0.00004088
208 1 13.499820 14.586870 10.575535 -0.01807650 -0.00002499 -0.02715680 -0.00017759 0.00013286 0.00016389
209 1 28.933627 24.350843 29.873648 0.02579403 0.03059077 -0.03984764 0.00433149 -0.00268793 -0.01063091
210 1 24.107277 2.852491 17.526327 -0.01536300 0.02226938 0.01561644 -0.00026096 -0.00006369 0.00009398
211 1 36.467319 30.370772 5.064331 0.01405198 -0.00941817 -0.01930198 -446331.83869303 -152834.05199359 -129781.26161140
212 1 33.180133 0.566810 13.443226 -0.04258411 -0.03036770 0.04212138 0.00003002 0.00005891 -0.00011415
213 1 23.741624 17.626988 16.521674 -0.01928490 -0.02416109 0.02183881 0.00001807 0.00013599 0.00002976
214 1 33.329135 2.591863 33.694137 0.09278552 -0.00830983 0.00278735 0.00006908 -0.00005108 0.00000314
215 1 12.214487 16.503046 27.068859 0.02596265 0.00610636 0.01784078 -0.00018779 -0.00001552 -0.00007494
216 1 10.637453 17.778678 36.046475 -0.03823451 0.00305085 0.03264404 0.00002606 0.00007498 -0.00006154
217 1 12.203357 28.840358 16.599941 0.00544081 -0.02758114 -0.00971120 0.00000768 -0.00006151 -0.00001943
218 1 15.323540 0.285491 26.706475 0.01541719 0.00312482 0.00248282 -0.00008881 -0.00009038 -0.00003197
219 1 33.047464 4.500006 4.001744 -0.01881766 0.01292871 -0.01311970 -0.00025942 0.00032222 -0.00123321
220 1 27.173859 8.157137 33.329037 0.03099795 -0.05017409 0.00755957 0.00003395 -0.00012748 0.00000229
221 1 25.744068 26.327275 21.032526 -0.01111101 -0.02256839 -0.01343212 0.00015394 -0.00001634 0.00013481
222 1 10.565643 26.540191 24.664727 -0.04612157 0.00807287 0.00753547 -10.25312812 4.98119570 -4.06471829
223 1 13.949152 19.371033 23.657278 -0.01805678 -0.00767033 -0.01468487 -0.00016194 -0.00017244 0.00012033
224 1 32.842138 38.590572 9.733155 0.00579793 -0.04246480 -0.06097820 0.00002674 -0.00022069 0.00020836
225 1 4.637285 8.877244 20.743609 0.02867563 0.01830875 -0.02273715 0.00004594 -0.00017040 0.00002376
226 1 18.909367 2.611389 9.170984 -0.00511086 -0.03791105 0.02976930 0.00004074 0.00008018 -0.00015639
227 1 27.098469 8.255138 23.247636 -0.01446701 0.04270622 -0.01735484 0.00016004 0.00007008 -0.00003798
228 1 28.002190 23.860155 4.164514 -0.01396085 0.04986227 -0.03888427 -0.00021829 0.00011879 -0.00017326
229 1 18.982148 20.175055 30.262295 -0.03269878 0.01474030 -0.01774983 -0.00005464 0.00011222 -0.00006808
230 1 16.732431 14.079387 20.758456 -0.00587894 0.04649448 -0.00167755 0.00016469 0.00005097 0.00011625
231 1 25.773421 33.312667 13.081401 0.00958371 -0.03862244 -0.03598652 0.00009827 -0.00006472 0.00001317
232 1 13.062497 37.872213 19.181521 0.00822773 -0.00949809 -0.01831330 -0.00010088 -0.00010612 0.00018244
233 1 21.188381 17.538106 27.441260 0.01950368 0.03902878 -0.02652840 0.00003397 0.00005262 0.00012491
234 1 37.346843 28.745634 10.033251 0.03570180 -0.03830849 -0.00957430 0.00005701 -0.00018918 0.00012309
235 1 36.307666 23.782577 7.253153 -0.00803393 -0.00171772 0.02587085 0.00001813 -0.00010981 0.00002140
236 1 9.216410 36.579256 14.815109 -0.05077579 0.04737602 0.00683330 0.00012385 -0.00011213 0.00012134
237 1 33.328031 38.292398 6.206933 0.02129937 0.03887666 0.00712899 -0.00054210 -0.00090041 -0.00009335
238 1 5.952511 10.647014 28.236314 0.03001347 -0.03963256 0.00324320 0.00009697 -0.00007178 -0.00000368
239 1 6.488954 29.543542 5.937553 0.01196030 -0.06446274 0.00707134 -0.00000591 -0.00008521 -0.00016498
240 1 14.022825 15.334311 21.641113 0.00101532 0.01731101 0.03409178 -0.00005877 0.00015937 0.00024415
241 1 19.818709 17.045087 33.700206 -0.04690281 0.01122615 0.01926825 -0.00004703 0.00003996 -0.00016100
242 1 22.885518 4.540098 7.200588 -0.00433807 -0.01449244 -0.04626798 -0.00021731 0.00001742 0.00016515
243 1 11.326042 21.258725 14.062100 -0.02966290 -0.01109207 -0.03685234 20938.73311882 -6510.18873091 -7866.00868697
244 1 11.589769 2.343368 11.158221 -0.04479895 -0.01748924 0.00147298 0.00004434 -0.00002831 -0.00007212
245 1 14.387774 34.896442 7.572915 0.03551244 -0.02973947 0.01047763 0.00014749 0.00008053 0.00005735
246 1 1.338580 28.963054 34.381808 0.03282128 -0.03485258 0.01818838 0.00004527 0.00001630 0.00007816
247 1 28.055665 38.983659 35.496682 0.02589325 0.01773185 0.02541771 0.00011352 0.00036726 0.00030822
248 1 7.734476 27.779647 3.178892 -0.00006811 -0.03421162 0.05496236 0.00008850 -0.00004100 0.00004192
249 1 0.143613 1.025089 1.519735 -0.04598405 -0.01715154 0.02639160 0.00003812 0.00001798 -0.00008779
250 1 4.000869 26.072112 21.825532 0.00202590 0.02126342 -0.02143269 -0.01125220 0.03594079 0.01086915
251 1 5.190802 25.874515 13.409283 0.02530887 -0.01910670 -0.05204978 -0.00152648 0.00074775 -0.00192378
252 1 10.389025 32.381412 38.248110 0.01645823 0.05370151 0.00427211 0.00015147 -0.00013165 -0.00007330
253 1 35.627303 28.706602 9.715862 -0.00007279 -0.00506499 0.00807746 -0.00005571 -0.00020931 0.00041771
254 1 29.408883 30.635586 7.729937 -0.04342831 0.00711536 -0.02950301 -0.00005685 -0.00009200 -0.00015337
255 1 24.996854 6.343378 20.215563 -0.01760835 -0.01991046 -0.03184821 0.00017813 -0.00012649 0.00014465
256 1 36.085449 13.216547 30.136269 0.00067462 -0.01097194 0.05468938 -0.00003627 -0.00005429 -0.00000703
257 1 35.428210 25.162078 2.130576 -0.02861582 -0.02981946 -0.00659445 0.00008852 -0.00019899 0.00001583
258 1 5.838384 34.820294 24.642563 0.03896009 -0.01854874 0.02290722 1378.44188790 -863.00598826 906.60834460
259 1 20.294995 9.956837 15.896882 0.02388964 0.01134725 -0.03790630 -0.23022140 -2.72260353 -10.03690329
260 1 25.882147 27.763802 30.554481 -0.01508224 -0.00096687 0.04057824 -0.00007260 0.00006345 0.00019614
261 1 11.437829 32.601291 11.687773 0.01149981 -0.01958952 -0.04186658 287.56971257 -701.35750791 -424.38935676
262 1 30.105080 28.192836 0.319394 0.00453572 -0.00209231 0.01685536 -0.00008227 -0.00000606 -0.00000300
263 1 3.827197 11.233585 13.160942 -0.01471984 -0.03925507 0.04087947 0.00024330 -0.00187259 -0.00098425
264 1 20.752277 34.829833 12.158029 0.00549152 -0.04699952 0.00410201 0.00002545 0.00008119 -0.00001887
265 1 34.192032 3.224350 19.326503 0.00656826 -0.03400782 -0.02053588 -0.00095831 0.00100516 0.00041197
266 1 38.875310 31.218160 3.168458 0.01898842 -0.01002892 0.01984396 0.00068908 0.00012096 -0.00043364
267 1 13.974262 16.480937 11.155234 0.01088855 -0.01225443 -0.03250059 0.00007708 -0.00017191 -0.00004486
268 1 16.709558 19.716280 34.815739 0.03939309 0.00830471 -0.00953579 -0.00017239 0.00016891 -0.00012839
269 1 29.848336 14.294654 25.195397 -0.00087701 0.01029930 0.00813050 0.00017740 -0.00005734 0.00013958
270 1 29.352707 10.316182 38.434756 0.01711751 0.01366726 0.03732951 -0.00006355 0.00027525 -0.00022752
271 1 29.199019 18.832862 10.874182 -0.02196690 0.02604000 -0.00154681 0.00038281 0.00008813 0.00041309
272 1 0.688562 28.138979 6.383903 -0.03599361 -0.04007116 0.00181005 0.00103426 -0.00076636 0.00019940
273 1 17.985965 4.989232 12.883240 0.05857720 0.02465707 -0.02665603 -1.03139842 1.53748511 -0.37142514
274 1 15.610169 26.620387 26.038988 -0.02874461 0.02377547 -0.01870017 -218.28216865 961.77788785 1250.15824260
275 1 23.664329 16.307989 6.516765 0.00279625 -0.00808939 -0.00809339 0.00144779 0.00073351 0.00007520
276 1 18.266247 20.485089 15.811374 -0.03574726 0.00897540 0.02720500 -0.00012751 0.00003539 0.00010049
277 1 8.212339 12.497819 37.501614 0.03766739 0.03477138 0.01536920 -0.00001315 -0.00021251 -0.00007371
278 1 25.210598 6.222046 22.752530 -0.00267760 -0.00980333 0.00421817 -0.00000001 -0.00001017 0.00008103
279 1 32.373837 13.576006 28.385817 0.02663694 0.00099406 -0.00184051 0.00011337 0.00012392 -0.00015239
280 1 27.195110 19.107362 3.306563 -0.04278833 -0.00562611 -0.02303131 0.00060837 0.00031650 -0.00168237
281 1 20.239116 16.482290 33.873218 0.01293259 -0.00638809 -0.03085156 33.70527808 -179.57657944 -94.44681398
282 1 28.069121 15.629016 10.956912 -0.03680342 -0.02729651 0.00279534 -647933.96655634 -4314380.77680875 -4495989.38450670
283 1 27.794593 3.060636 27.501394 -0.02525170 -0.06868317 -0.01464778 -0.00013591 0.00003747 -0.00015358
284 1 27.182868 29.733831 18.204034 0.06755428 0.04278316 0.01913793 -0.00003059 -0.00000165 -0.00008740
285 1 11.324893 15.437427 35.698506 0.04174320 0.02834944 -0.01723333 0.00001020 -0.00003686 0.00037780