LAMMPS data file for silica system 85

3221 atoms
2 atom types

0.0 36.872202 xlo xhi
0.0 36.872202 ylo yhi
0.0 36.872202 zlo zhi

Masses

1 28.0855  # Si
2 15.9994  # O

Atoms  # atomic

1 1 4.183285 17.166883 20.235437
2 1 8.205136 34.790438 21.951179
3 1 11.860100 5.624371 4.812463
4 1 25.376150 12.531266 26.874455
5 1 17.557613 34.855851 36.075376
6 1 29.606247 10.184284 34.015780
7 1 8.695080 9.430975 27.824093
8 1 26.435859 28.632794 2.275683
9 1 10.989157 6.298259 11.703808
10 1 16.483332 0.912936 9.182570
11 1 33.772057 23.514330 32.944118
12 1 21.381570 8.960165 14.920319
13 1 34.251652 35.152892 26.972247
14 1 20.108059 33.950347 17.488910
15 1 6.390339 31.586841 32.398212
16 1 12.857415 20.572256 27.796602
17 1 20.529279 24.306374 1.276740
18 1 28.163923 20.616269 11.654233
19 1 5.944714 30.147597 17.863723
20 1 32.156062 17.972383 4.701412
21 1 16.540166 6.475182 7.600322
22 1 35.578579 32.862755 4.757792
23 1 20.989935 2.162608 15.256094
24 1 29.054720 7.003660 25.205010
25 1 20.250254 16.736372 3.605897
26 1 19.101721 4.914262 32.826722
27 1 11.854121 17.772149 8.097897
28 1 4.678972 34.331485 35.412859
29 1 33.580409 8.822667 5.262309
30 1 5.562595 4.933618 34.553233
31 1 24.459898 10.375023 3.639797
32 1 31.247148 9.591794 31.663641
33 1 18.102886 8.177407 26.702578
34 1 0.057383 8.670539 25.572800
35 1 13.467026 23.545855 0.262145
36 1 10.232129 0.944349 19.027176
37 1 25.065817 2.689660 1.648701
38 1 24.398603 1.170926 10.474083
39 1 9.004035 0.908715 22.044411
40 1 1.432226 36.738245 17.575190
41 1 11.482490 20.166392 21.885641
42 1 12.829562 4.277782 32.053235
43 1 6.340631 14.637548 16.419124
44 1 4.759443 29.946171 22.619429
45 1 3.910899 2.074159 23.494169
46 1 29.197921 30.296168 36.356009
47 1 0.324366 22.538270 15.700284
48 1 13.717840 27.734964 6.442884
49 1 3.511670 26.679681 15.599784
50 1 19.533082 20.509039 9.442794
51 1 20.191892 11.617651 35.352550
52 1 26.499747 11.445475 31.604984
53 1 35.534108 0.174618 13.997152
54 1 7.197884 13.376430 27.066355
55 1 1.834932 3.779421 12.286185
56 1 1.676059 1.605351 20.898587
57 1 21.949345 2.827866 14.088706
58 1 35.238440 8.973502 33.987514
59 1 26.273965 33.934894 14.200813
60 1 20.226086 9.842125 12.030444
61 1 4.360702 30.463452 19.362836
62 1 28.419974 16.273410 14.917139
63 1 1.218548 18.444928 12.704745
64 1 6.895554 18.705540 7.314190
65 1 26.298925 28.607644 16.838166
66 1 8.736441 36.102334 20.714607
67 1 34.310338 20.459053 25.906679
68 1 9.681083 35.885552 4.575738
69 1 21.668328 32.552143 17.844752
70 1 30.793021 6.981007 26.003458
71 1 30.316397 26.511436 27.405253
72 1 10.343499 9.700855 10.911241
73 1 22.647069 5.742734 31.928795
74 1 16.316464 2.435299 29.982580
75 1 3.104318 31.974036 12.129366
76 1 25.413085 8.884937 30.029612
77 1 15.919047 4.538681 12.892540
78 1 33.511652 22.015968 10.603309
79 1 35.693321 3.251463 32.263455
80 1 5.843166 23.347400 2.143069
81 1 11.864741 1.394652 6.197890
82 1 30.203047 11.114747 26.532502
83 1 0.439593 3.223177 11.525424
84 1 5.052449 25.497085 0.325918
85 1 29.143591 22.534662 23.537592
86 1 23.498831 8.682263 11.490828
87 1 2.235252 0.336155 7.061147
88 1 14.231146 4.673265 1.379208
89 1 28.154363 32.880526 14.675731
90 1 6.287741 4.632609 2.450751
91 1 33.170576 36.793586 17.817680
92 1 3.032423 7.224620 34.855422
93 1 35.656750 14.682892 23.964377
94 1 7.417914 31.658809 30.439633
95 1 4.803876 27.304058 12.401238
96 1 20.147114 6.281636 7.263785
97 1 1.805456 31.415637 11.365426
98 1 28.269956 31.792890 36.162825
99 1 29.109814 15.939967 30.938366
100 1 17.636658 16.477262 6.701677
101 1 12.776564 26.903012 5.779354
102 1 0.230366 31.981435 36.331282
103 1 33.357216 16.148819 23.216616
104 1 6.343970 15.427714 19.067070
105 1 8.570698 31.025367 29.030634
106 1 0.135117 22.283335 11.553412
107 1 4.442212 35.640766 15.450820
108 1 33.055606 14.942672 7.352377
109 1 23.762854 33.682532 16.434229
110 1 3.021436 21.941002 12.647957
111 1 5.206372 35.208259 35.189091
112 1 24.488413 0.997424 13.745172
113 1 7.983242 20.646931 9.962842
114 1 6.252266 13.591354 27.534630
115 1 20.575249 9.202197 23.671529
116 1 20.780611 5.006614 24.639547
117 1 28.855392 0.382270 0.105444
118 1 25.422437 34.866792 13.537257
119 1 1.262423 18.417998 1.998955
120 1 10.882745 18.021843 34.527403
121 1 29.929488 15.681650 31.860885
122 1 5.737044 2.468624 22.836058
123 1 28.863058 21.128963 21.559608
124 1 10.238614 7.072966 10.575792
125 1 35.111646 12.286616 34.898111
126 1 13.014210 19.520738 33.806125
127 1 31.137573 5.490134 25.333111
128 1 13.101273 8.290835 3.819760
129 1 6.937368 1.430572 12.141804
130 1 22.456002 13.912512 5.765887
131 1 36.506994 9.164374 8.019019
132 1 15.411990 7.382583 17.471190
133 1 15.646196 34.511905 28.526141
134 1 8.532296 20.111451 15.900473
135 1 12.670235 3.313123 26.470042
136 1 23.885025 11.440408 33.940318
137 1 21.390567 18.128932 4.816530
138 1 13.226441 30.389577 20.606019
139 1 0.241651 18.176940 13.485392
140 1 21.466000 15.605196 33.778822
141 1 34.876913 13.588783 16.493329
142 1 2.728757 3.415609 0.205714
143 1 20.216421 36.291030 17.128822
144 1 32.392885 14.330767 34.859380
145 1 3.156651 26.477563 6.920998
146 1 16.813041 17.053028 36.447637
147 1 10.865913 7.304650 12.275442
148 1 5.737115 8.554939 17.047136
149 1 24.725150 7.362527 15.558379
150 1 17.390183 18.145338 6.447612
151 1 33.225836 32.194424 15.031478
152 1 35.783754 1.782307 3.318885
153 1 1.698967 14.534324 10.926433
154 1 7.048601 34.002094 2.259457
155 1 30.020946 31.845772 0.162981
156 1 10.835902 19.952790 15.280884
157 1 5.963104 15.230908 29.111814
158 1 21.877960 12.363064 3.555908
159 1 30.992434 4.531420 25.594004
160 1 4.289254 36.708345 13.417351
161 1 7.904047 9.294205 27.620692
162 1 24.729099 21.708158 18.309108
163 1 2.968640 10.302710 28.960801
164 1 1.587467 20.528733 12.168792
165 1 34.663228 18.724354 25.275894
166 1 27.350942 29.334912 13.128821
167 1 33.058640 0.426892 2.665002
168 1 31.502105 4.900884 35.409835
169 1 28.035190 28.431504 31.770112
170 1 34.489032 2.770272 12.847474
171 1 21.006915 28.614165 18.943756
172 1 4.459220 26.980817 3.437304
173 1 27.407428 35.719378 8.697773
174 1 7.715127 29.428630 32.553440
175 1 24.585698 2.402887 5.126381
176 1 34.919745 14.690038 28.140590
177 1 7.636323 24.635002 32.852829
178 1 13.291103 7.949004 12.537872
179 1 0.732768 35.078536 8.846199
180 1 16.537394 19.844129 24.629311
181 1 5.190808 23.531166 34.668804
182 1 1.474375 36.644092 23.577465
183 1 8.480407 34.223807 21.142017
184 1 24.606203 12.119892 7.516501
185 1 3.621801 4.577219 10.584879
186 1 20.137221 23.381765 14.746129
187 1 33.469499 5.196958 1.372502
188 1 30.053661 5.785274 33.662521
189 1 31.743770 12.481841 24.256746
190 1 6.347643 24.784593 7.199638
191 1 7.503429 17.756706 16.674840
192 1 30.090165 32.954091 23.907792
193 1 3.550272 21.710575 28.758638
194 1 10.826250 31.546437 32.029693
195 1 16.125147 11.176069 6.970478
196 1 32.422163 11.057231 30.850534
197 1 31.439008 14.780570 20.567578
198 1 24.527286 1.550086 10.849950
199 1 6.441545 14.712633 5.421280
200 1 8.756978 9.667882 21.173188
201 1 17.067362 4.612323 5.843489
202 1 9.218440 26.656363 16.014252
203 1 28.790999 34.761678 3.063426
204 1 22.287674 24.724631 22.902061
205 1 28.986505 0.575293 14.627858
206 1 18.805532 30.366339 2.494057
207 1 4.268677 1.190490 10.343225
208 1 34.574502 19.173055 4.856616
209 1 36.393561 36.487119 17.542255
210 1 36.595423 36.047784 11.773631
211 1 36.084046 14.124798 14.028880
212 1 33.728186 27.414185 12.597316
213 1 29.618689 3.204948 27.359833
214 1 7.615037 11.806826 23.757528
215 1 34.001677 10.022821 21.311477
216 1 13.142049 27.991757 36.835884
217 1 7.715128 16.244350 8.943544
218 1 0.029245 4.910917 34.812264
219 1 33.271336 8.987196 23.443254
220 1 7.963531 8.578374 18.538719
221 1 7.712177 31.371846 12.598199
222 1 34.358940 14.947467 16.327467
223 1 9.697885 28.968221 28.335649
224 1 32.528027 3.732047 5.305487
225 1 30.607426 21.182027 23.700938
226 1 20.906538 34.799031 18.137482
227 1 15.617511 20.424682 21.846738
228 1 27.808745 27.350258 17.202524
229 1 26.302786 3.622376 7.401554
230 1 33.544343 35.947114 26.825229
231 1 1.506204 10.260794 17.294438
232 1 32.443570 16.524059 15.416433
233 1 11.219519 22.769317 10.053750
234 1 33.590824 33.121848 13.393355
235 1 27.528589 10.470543 27.715079
236 1 14.667736 20.523277 33.389536
237 1 32.508581 23.785885 8.593287
238 1 10.160394 19.580335 9.905058
239 1 21.307545 24.263034 11.365236
240 1 21.310796 0.143666 10.313101
241 1 27.137947 22.038516 26.688799
242 1 10.434648 10.051368 34.630284
243 1 9.618465 12.944637 26.094191
244 1 16.349958 23.027484 17.700929
245 1 34.699089 5.882563 20.279015
246 1 17.507501 17.157870 10.778973
247 1 21.607779 27.730034 36.345425
248 1 30.407105 32.045952 1.408512
249 1 6.863227 11.187005 29.923271
250 1 27.253548 11.158615 3.589384
251 1 1.880417 11.315855 15.298654
252 1 10.593765 18.265454 0.927048
253 1 5.398573 2.152269 14.020848
254 1 8.953487 30.544835 24.937452
255 1 33.021450 7.832757 22.062647
256 1 14.149202 32.066512 7.348144
257 1 19.091181 0.738250 32.302910
258 1 1.040131 14.773184 10.007613
259 1 7.096469 20.475502 4.323833
260 1 36.071131 28.429041 14.949909
261 1 16.526512 25.940431 18.804068
262 1 2.124740 12.347705 6.560738
263 1 3.112958 20.786753 24.626509
264 1 36.496534 25.374419 9.407747
265 1 23.719233 2.306988 11.790186
266 1 7.627976 11.010705 21.644319
267 1 33.278199 1.661761 8.705081
268 1 29.914142 11.535151 35.118293
269 1 5.500949 30.612883 21.273995
270 1 18.110621 33.863197 26.070087
271 1 21.904365 26.838791 8.171953
272 1 3.289833 2.193311 14.876807
273 1 13.540144 5.831411 8.255461
274 1 26.603471 15.099027 24.044388
275 1 13.374793 4.836722 17.229318
276 1 23.431041 32.205738 9.901930
277 1 4.473129 6.033560 32.243030
278 1 18.151286 0.687078 10.282575
279 1 27.448637 29.004708 21.628965
280 1 29.226470 19.331042 18.383031
281 1 4.776598 16.265345 12.957272
282 1 13.149488 12.671052 20.804791
283 1 6.929680 32.371519 7.129230
284 1 4.227745 19.516294 8.566894
285 1 30.560230 17.284966 26.028191
286 1 0.033688 25.942945 27.823959
287 1 20.845845 0.448224 0.652750
288 1 17.063068 21.079598 31.855242
289 1 28.021490 12.295356 21.150907
290 1 30.167040 15.229469 2.264341
291 1 16.847115 5.326441 35.812677
292 1 13.828711 4.590797 25.505358
293 1 4.008004 17.791639 19.449318
294 1 16.336613 21.890379 13.985020
295 1 14.221992 16.651959 31.964722
296 1 15.157299 0.711308 17.039186
297 1 23.845377 29.718530 5.773321
298 1 31.069024 32.650808 11.299197
299 1 34.090049 29.701803 32.052382
300 1 22.716990 24.370112 26.812695
301 1 15.013197 35.462981 19.097861
302 1 11.380639 17.471380 28.072019
303 1 20.444973 30.049886 34.558410
304 1 28.559347 33.550315 3.890331
305 1 0.931273 5.672862 4.471189
306 1 18.434782 11.403890 21.268342
307 1 2.976876 11.815851 23.726696
308 1 27.733037 23.039818 3.088322
309 1 2.272347 4.323673 30.254161
310 1 27.349588 13.986281 33.238294
311 1 21.935206 19.562270 27.631737
312 1 33.838155 10.750794 15.708692
313 1 2.347748 3.547585 31.648805
314 1 21.434469 19.555905 17.336962
315 1 22.038136 2.673513 9.795226
316 1 6.619949 25.239674 21.920382
317 1 18.284794 5.262882 6.621397
318 1 26.165325 21.120437 20.078380
319 1 4.523909 20.099989 20.913090
320 1 15.703284 26.026000 34.709619
321 1 21.036639 21.780464 15.981338
322 1 24.873090 15.809196 5.730866
323 1 15.613458 23.832471 11.605672
324 1 0.861646 20.217738 17.029855
325 1 32.584129 17.346424 13.330739
326 1 33.850132 19.082814 3.052525
327 1 19.968324 15.964761 3.214454
328 1 19.437849 17.501115 35.009629
329 1 4.780415 3.698149 14.733740
330 1 31.478164 36.065398 34.735680
331 1 31.573255 7.213761 36.409043
332 1 3.849627 35.167920 14.090989
333 1 3.738166 21.669551 7.107501
334 1 17.698853 31.428890 25.750287
335 1 24.478846 15.493095 14.781807
336 1 10.971663 26.568185 5.790669
337 1 18.263555 6.551259 18.390815
338 1 2.471128 5.227749 24.408758
339 1 28.017859 24.800156 25.311520
340 1 2.857357 4.204382 27.958216
341 1 9.823876 30.748422 27.465342
342 1 20.666874 17.454076 5.654244
343 1 23.656474 18.974358 13.403484
344 1 15.976553 32.697115 1.160998
345 1 20.022049 2.722978 19.706090
346 1 15.193862 32.775662 4.569766
347 1 34.500367 24.248680 27.513151
348 1 16.321368 16.433562 31.306777
349 1 21.284266 6.629529 17.818748
350 1 6.747005 9.265359 30.625226
351 1 22.444248 13.884109 12.649065
352 1 22.781801 10.904949 9.375603
353 1 22.283842 3.304902 5.653574
354 1 18.465905 21.078327 34.586123
355 1 32.754588 32.858510 17.817489
356 1 16.088024 4.424166 13.277161
357 1 28.476861 21.495776 4.014182
358 1 14.627563 19.803821 2.438658
359 1 27.163103 3.975185 33.264624
360 1 28.404976 33.900666 32.220338
361 1 31.499283 19.242073 0.270584
362 1 16.499035 34.784701 7.732728
363 1 30.731207 29.860047 14.559292
364 1 23.524056 28.840482 36.717100
365 1 12.978250 6.393051 6.380126
366 1 35.929384 2.503557 24.918038
367 1 4.093975 6.210521 29.143789
368 1 31.241595 11.313298 24.204564
369 1 12.166077 31.068706 13.563051
370 1 21.241616 24.477359 23.723516
371 1 6.381323 25.870788 31.920016
372 1 2.290616 30.309729 6.232382
373 1 17.690820 20.675442 7.168823
374 1 4.487368 24.661671 9.563947
375 1 3.367587 21.131734 26.786200
376 1 15.413433 18.122285 13.944082
377 1 4.251805 24.900027 8.419528
378 1 10.550627 13.714961 2.503538
379 1 6.065007 29.710566 26.764092
380 1 9.047350 15.055495 17.295612
381 1 34.375886 9.491409 15.652123
382 1 18.896500 35.678621 26.169036
383 1 12.865644 13.027126 10.329497
384 1 17.306077 2.295147 31.739245
385 1 23.717468 7.363545 9.607440
386 1 18.797503 14.115360 17.507105
387 1 20.210349 30.238833 20.996674
388 1 15.594360 24.582561 23.631485
389 1 20.682520 18.522980 27.262736
390 1 0.171336 3.854371 32.203542
391 1 17.558636 26.149674 2.133214
392 1 26.841859 1.159533 19.802001
393 1 13.700991 15.551804 35.486988
394 1 13.582578 31.003244 1.834845
395 1 30.597628 4.783268 24.563215
396 1 32.592032 5.879260 17.837559
397 1 0.514425 6.999793 11.378598
398 1 27.895752 22.188923 14.988538
399 1 13.210467 4.866030 33.194721
400 1 30.814927 17.767295 3.567338
401 1 26.977534 13.167711 18.063365
402 1 13.914161 35.082878 21.539239
403 1 17.535847 19.694229 3.208367
404 1 5.126696 21.814212 0.607712
405 1 6.188865 29.808209 32.864432
406 1 24.342099 26.109730 22.903861
407 1 3.337450 35.894346 19.666828
408 1 17.316912 5.345162 31.012477
409 1 11.408236 12.926436 34.389719
410 1 9.555310 27.971796 14.465437
411 1 31.442100 14.608001 5.483620
412 1 5.269223 4.513000 12.824074
413 1 25.070765 27.401620 33.503003
414 1 25.591970 12.554256 4.211584
415 1 28.460348 32.323263 26.237598
416 1 10.904367 27.128203 11.728922
417 1 6.154091 24.925269 30.781070
418 1 33.893294 13.141239 34.970552
419 1 0.401458 7.131790 2.508804
420 1 1.246157 32.163432 6.303671
421 1 2.510475 14.454164 35.282542
422 1 23.900112 0.729431 31.447326
423 1 36.725778 25.616520 2.185017
424 1 8.141179 13.143700 18.740838
425 1 17.587376 36.537618 34.344104
426 1 6.936311 21.045606 26.100597
427 1 17.485207 18.942449 30.829741
428 1 16.772450 20.398959 8.954338
429 1 16.148588 4.587644 25.202938
430 1 21.974809 36.296504 30.788860
431 1 21.879143 25.879558 24.937800
432 1 22.790846 27.308137 27.352326
433 1 33.065104 2.091987 18.231868
434 1 11.437192 29.475660 14.741814
435 1 15.690571 20.363045 25.810133
436 1 35.567630 11.840662 17.277196
437 1 10.677069 25.991793 31.982975
438 1 7.702183 18.533458 36.026210
439 1 26.323334 10.672214 2.383210
440 1 9.184879 1.809439 3.539368
441 1 0.856784 27.387093 2.516908
442 1 0.698681 31.834817 8.800699
443 1 32.648170 12.045958 3.472913
444 1 23.219408 0.547296 29.775195
445 1 26.894239 23.572278 4.159441
446 1 2.994070 24.313482 24.116559
447 1 31.538373 33.220957 5.759175
448 1 15.410477 3.532898 31.581028
449 1 7.013623 12.968870 27.606835
450 1 26.004252 24.172466 28.015911
451 1 0.171671 29.460900 8.780534
452 1 18.929519 5.291421 33.862461
453 1 33.681524 4.760974 11.633438
454 1 23.150217 27.468383 27.022699
455 1 33.976020 17.396542 1.294660
456 1 24.047770 35.274542 22.178782
457 1 31.648565 32.835168 33.003272
458 1 9.283018 30.474199 16.858291
459 1 2.381752 26.034621 0.894178
460 1 33.225008 13.104312 16.543701
461 1 7.124388 33.859557 34.872426
462 1 32.285255 21.516171 7.884833
463 1 14.061237 32.846017 24.677561
464 1 18.633020 0.170902 24.917540
465 1 18.246116 35.093395 17.102942
466 1 33.879583 0.883413 2.776673
467 1 7.011084 17.436360 7.630224
468 1 31.651646 22.775682 20.974076
469 1 11.329328 15.334786 9.484981
470 1 34.129654 27.604452 19.888574
471 1 2.001110 21.924811 10.664773
472 1 30.797319 4.301688 14.857429
473 1 20.042800 9.533818 19.807695
474 1 20.933837 33.914725 2.637634
475 1 6.460985 11.478145 27.388617
476 1 6.102127 23.466142 2.359719
477 1 4.147087 0.011870 28.925528
478 1 22.982298 34.355190 19.502204
479 1 31.528419 33.829633 35.550708
480 1 11.966080 4.847450 16.392052
481 1 28.745783 17.628188 14.476046
482 1 3.787289 34.985113 35.785072
483 1 17.113348 28.759679 15.898041
484 1 9.078578 2.370945 16.565141
485 1 21.547633 31.038052 7.491268
486 1 26.887018 25.980016 28.705984
487 1 27.926140 15.453914 12.632818
488 1 9.050773 1.864341 33.375439
489 1 24.745276 11.885184 28.488139
490 1 4.973995 10.138137 10.442133
491 1 17.921649 29.797173 24.554135
492 1 36.166851 18.062795 25.529834
493 1 36.360076 13.281958 18.768038
494 1 33.867106 26.058779 0.255915
495 1 6.298092 2.600607 10.618991
496 1 27.958865 10.370942 5.402142
497 1 13.184548 30.928644 24.681935
498 1 29.753388 24.805739 31.531254
499 1 8.119762 15.820123 28.986440
500 1 24.272735 13.062317 2.902027
501 1 4.583896 13.208067 23.728441
502 1 13.578270 17.582313 18.926655
503 1 16.525825 12.976046 21.659627
504 1 19.387476 17.256727 18.340395
505 1 5.242816 32.509255 26.433463
506 1 21.122043 14.404536 17.523624
507 1 17.889338 12.524595 28.753461
508 1 28.827676 12.495192 16.373171
509 1 32.264385 10.639346 4.877788
510 1 27.767239 2.371550 6.259790
511 1 36.102383 18.436954 20.619063
512 1 8.399053 27.899679 0.519819
513 1 33.257595 11.385601 18.416713
514 1 35.878663 17.989101 3.122302
515 1 18.106015 16.612318 14.381886
516 1 33.827740 17.107616 19.769272
517 1 24.637182 2.533140 6.476782
518 1 1.920935 3.639045 8.240463
519 1 32.667997 0.629960 1.650858
520 1 5.100233 31.279003 7.724621
521 1 12.341512 35.811388 3.404088
522 1 30.058872 26.967474 26.345445
523 1 17.391768 6.446412 3.431785
524 1 2.136669 34.816918 20.535258
525 1 22.586498 27.218821 28.696323
526 1 2.318912 23.041782 17.132538
527 1 12.784528 19.943154 28.970570
528 1 14.697264 33.409582 1.834336
529 1 5.319348 3.111869 35.131945
530 1 32.659217 15.324153 27.340322
531 1 6.046740 19.376565 24.576520
532 1 24.000119 34.614251 34.872807
533 1 26.184421 4.354932 0.327778
534 1 27.391159 32.304356 22.154568
535 1 15.509946 16.062687 33.842362
536 1 19.704117 10.507385 25.393258
537 1 11.297808 16.943627 33.971043
538 1 0.499687 6.083475 14.680601
539 1 32.508686 10.825555 8.825986
540 1 25.334795 23.381803 2.968037
541 1 19.996348 1.509822 18.775091
542 1 16.386598 28.784510 33.993139
543 1 2.636340 12.357883 27.554966
544 1 36.341884 4.811611 31.101733
545 1 3.712518 11.463527 32.683719
546 1 20.123316 8.123952 35.137135
547 1 4.726544 18.379242 25.399689
548 1 32.934342 10.091109 34.284857
549 1 6.031410 1.637182 21.655605
550 1 12.346374 34.022416 24.918657
551 1 36.866316 29.580608 2.692471
552 1 31.020793 1.292733 33.088622
553 1 12.820759 32.288168 27.497221
554 1 27.256032 5.098638 2.543340
555 1 17.571267 6.119818 30.662586
556 1 10.785642 34.108795 13.365072
557 1 22.107319 11.416007 11.597064
558 1 11.389684 31.972816 12.856959
559 1 27.847107 12.565768 3.604405
560 1 15.775454 17.623259 13.007446
561 1 27.773700 4.695947 0.718110
562 1 28.266704 6.504411 34.537393
563 1 14.151638 19.996502 17.987433
564 1 35.504229 32.961437 24.540446
565 1 13.138740 4.510016 12.450810
566 1 23.804869 1.309493 19.768056
567 1 4.429158 14.545718 30.866585
568 1 18.819171 18.237833 14.891821
569 1 4.831963 12.376425 24.441747
570 1 33.694281 16.573175 5.956688
571 1 24.053674 27.761725 7.065687
572 1 7.686328 10.984550 0.013603
573 1 22.983031 7.842944 33.048036
574 1 17.660835 13.609523 22.664346
575 1 33.631682 6.260868 22.675431
576 1 0.274235 15.112910 35.342619
577 1 1.362096 9.916144 19.702144
578 1 24.086487 22.529485 21.019282
579 1 26.122843 9.676054 20.364016
580 1 16.620931 24.202174 6.863114
581 1 30.383045 3.474805 2.062677
582 1 31.947665 27.319479 23.912867
583 1 30.026614 4.964378 7.745253
584 1 35.301949 6.824789 30.254570
585 1 4.465988 35.891239 11.565015
586 1 10.559267 27.020640 10.530321
587 1 12.215679 18.822764 22.422217
588 1 18.761857 2.277553 25.865652
589 1 23.092418 0.899472 2.244819
590 1 10.420197 36.478067 34.056400
591 1 25.979131 2.675029 26.690874
592 1 10.852237 30.407046 22.699378
593 1 13.103061 22.748112 4.493217
594 1 26.471571 32.311981 30.643641
595 1 17.540852 12.101494 33.139456
596 1 28.518800 9.389267 36.256440
597 1 5.506401 32.867369 18.383660
598 1 7.083919 16.567521 2.604014
599 1 24.350794 25.246685 6.776475
600 1 24.294356 10.513641 28.035847
601 1 36.700168 26.769241 22.675447
602 1 10.739566 21.190097 21.152729
603 1 25.065180 20.612640 1.644007
604 1 11.047044 14.237537 0.721305
605 1 0.073355 5.167493 20.917816
606 1 21.308474 7.445806 5.829086
607 1 13.167989 11.851040 7.027839
608 1 0.631362 26.520739 5.256944
609 1 19.798362 28.355241 2.798848
610 1 16.738460 36.504628 19.976304
611 1 12.473188 12.466161 29.682790
612 1 28.196019 7.007480 2.949548
613 1 36.871800 4.144460 3.617246
614 1 5.071098 23.393712 31.583470
615 1 4.863055 17.466534 23.155679
616 1 10.601704 8.844202 7.151361
617 1 20.766040 26.144162 27.254690
618 1 9.576187 25.368613 7.278630
619 1 32.618511 22.162867 27.550900
620 1 27.611356 9.015683 24.186374
621 1 30.821807 33.689304 15.774043
622 1 36.191448 16.538088 1.858658
623 1 33.197788 4.607931 13.250579
624 1 15.071183 21.729284 17.948730
625 1 15.922907 17.538031 28.740039
626 1 22.353576 13.134694 10.194500
627 1 35.582081 25.649597 30.390464
628 1 34.810263 35.094299 14.672820
629 1 31.185630 16.410252 21.897691
630 1 33.878953 33.499509 32.109596
631 1 7.972022 14.639361 7.440720
632 1 11.390015 21.936359 15.960415
633 1 8.855928 34.071155 14.306019
634 1 27.541766 12.890061 3.794482
635 1 29.731590 29.994301 29.253372
636 1 31.356951 1.418627 5.865944
637 1 36.771992 16.108292 1.252103
638 1 34.789552 34.993495 26.378974
639 1 26.212179 3.191123 21.032349
640 1 29.397885 26.608632 30.869687
641 1 17.336901 34.471936 21.211814
642 1 16.891144 27.720156 2.977018
643 1 11.236448 32.347417 25.117571
644 1 9.001167 2.404178 1.011313
645 1 16.044777 18.768430 0.595408
646 1 32.617866 6.175981 11.930495
647 1 14.540470 1.595919 3.978099
648 1 36.860023 10.682986 34.986990
649 1 32.756212 0.681571 34.183716
650 1 29.503817 35.496137 6.688758
651 1 4.797466 35.392511 23.168444
652 1 26.916627 8.551094 24.089262
653 1 30.071378 9.231632 20.824031
654 1 19.944223 16.760317 29.022865
655 1 9.789986 3.408830 12.415716
656 1 35.943336 10.312973 18.396204
657 1 24.506315 8.072720 3.755116
658 1 30.162818 12.921137 25.034301
659 1 11.647382 2.782087 9.170244
660 1 0.324632 6.106162 1.598089
661 1 2.335205 24.460318 30.486470
662 1 31.438875 18.626396 16.562806
663 1 36.159291 20.346528 24.201587
664 1 21.746838 5.069535 17.825716
665 1 26.346284 10.098208 5.191835
666 1 18.009955 8.680600 30.945663
667 1 10.672887 32.957130 11.766563
668 1 2.214540 17.896014 13.634524
669 1 26.845254 23.673002 5.926948
670 1 33.136452 4.856199 22.809334
671 1 1.840548 11.836986 1.996595
672 1 30.691072 31.889586 3.976887
673 1 20.505508 26.745924 36.357730
674 1 21.880057 14.287793 21.598844
675 1 1.310442 24.299881 18.717182
676 1 21.791394 31.822838 15.132157
677 1 9.246037 34.614799 11.436964
678 1 8.436920 13.951828 18.773032
679 1 11.684638 32.474374 5.101117
680 1 32.346047 12.467833 10.352336
681 1 34.900441 18.452139 8.343547
682 1 4.262450 6.009278 12.647248
683 1 28.505253 30.474505 32.070461
684 1 4.737646 6.962263 1.017008
685 1 25.400164 14.943729 16.753646
686 1 24.175857 17.851265 1.999635
687 1 1.375874 4.002957 1.684894
688 1 21.290978 19.318830 24.351132
689 1 18.566486 14.754536 4.308488
690 1 18.100135 34.362525 6.795605
691 1 1.803639 10.315719 30.420945
692 1 2.367540 9.625398 12.117326
693 1 16.983136 14.850257 25.717896
694 1 36.412190 28.689032 32.173200
695 1 12.331133 1.318245 2.108531
696 1 8.582548 13.199156 35.706349
697 1 11.841907 25.380844 19.727850
698 1 30.297209 31.939972 27.487352
699 1 31.234746 12.434192 19.355967
700 1 26.016447 20.617913 15.321240
701 1 19.190282 23.123702 3.966827
702 1 14.395244 21.806292 31.875645
703 1 12.748393 34.725775 0.525038
704 1 19.605757 13.835021 13.970144
705 1 25.518499 3.173705 14.895212
706 1 29.549769 32.976782 0.687365
707 1 35.675801 12.446502 18.451383
708 1 6.627355 16.468950 36.128671
709 1 23.419287 29.666253 31.464406
710 1 7.554811 17.962096 26.907470
711 1 36.551846 23.066326 24.801466
712 1 16.043861 22.562302 27.124237
713 1 33.414151 5.218143 18.032758
714 1 27.216582 22.599864 13.696652
715 1 2.043707 35.489219 9.163072
716 1 3.988717 16.546002 27.262214
717 1 24.321457 5.874006 10.175101
718 1 22.127628 23.360314 6.787425
719 1 11.022799 16.757805 16.670030
720 1 18.795663 36.720694 29.957282
721 1 16.190212 21.706806 26.699030
722 1 29.558539 21.918632 13.138123
723 1 7.033291 10.731235 23.040329
724 1 3.705006 2.299035 26.614838
725 1 11.432788 31.654667 16.053178
726 1 0.988102 31.208564 24.836458
727 1 14.130353 30.259625 36.740808
728 1 33.787929 30.412965 15.048397
729 1 30.804937 2.006434 18.927478
730 1 30.502267 16.624824 3.959564
731 1 20.827607 0.028028 35.904428
732 1 24.443135 3.647518 17.327188
733 1 8.907809 29.165917 5.549880
734 1 31.769893 12.134938 6.925896
735 1 0.624057 15.123768 15.581127
736 1 13.535236 13.242460 17.963457
737 1 11.266748 21.312513 34.611857
738 1 0.908865 32.395544 25.130622
739 1 11.751024 9.921989 27.486722
740 1 8.712470 23.575759 0.717604
741 1 34.633154 7.496278 14.767639
742 1 27.561503 32.910826 32.121393
743 1 21.054580 23.665938 27.334228
744 1 13.876807 14.641303 11.532302
745 1 12.070995 24.356460 17.028986
746 1 32.426522 22.165727 7.225842
747 1 1.738094 28.812791 33.481496
748 1 10.264973 8.423136 36.450346
749 1 6.382557 21.725014 34.342477
750 1 6.846346 34.874044 6.728726
751 1 35.614085 6.373044 34.389163
752 1 25.505694 13.524142 11.490835
753 1 1.555561 25.948065 16.073664
754 1 16.965482 33.350936 31.066093
755 1 34.953957 18.682612 4.569387
756 1 7.068617 11.952274 30.479056
757 1 16.885522 26.298955 26.111834
758 1 27.296649 16.725447 6.140756
759 1 2.987203 10.006093 36.126884
760 1 28.011560 36.607156 10.093472
761 1 16.147710 34.126656 14.933068
762 1 13.162759 29.707813 27.563001
763 1 22.479648 18.996525 3.305747
764 1 11.928367 0.057975 24.788543
765 1 21.200264 28.013217 7.344040
766 1 2.599111 2.316812 6.072488
767 1 16.429198 2.682512 14.497607
768 1 34.932766 17.893627 28.018387
769 1 8.135765 11.873609 8.319792
770 1 13.449243 21.791616 2.539750
771 1 27.919657 15.459119 0.103841
772 1 3.490476 27.988591 22.923619
773 1 4.286792 17.941957 14.385923
774 1 32.801644 5.402574 18.569230
775 1 12.159036 28.269122 16.943724
776 1 35.237416 0.628251 25.310528
777 1 11.688612 12.793572 33.827624
778 1 19.899908 19.073929 24.695452
779 1 19.532657 26.899261 10.037748
780 1 24.822496 3.327710 12.015404
781 1 6.982902 1.006592 6.029375
782 1 30.688820 3.011972 24.899462
783 1 5.579016 22.938856 6.978699
784 1 3.887207 13.909711 26.049940
785 1 1.830955 36.310599 20.068307
786 1 20.213348 3.012648 27.040210
787 1 23.459917 8.295763 18.165138
788 1 28.195507 31.529925 25.936123
789 1 36.513301 34.187196 7.009135
790 1 32.539870 29.989470 36.436684
791 1 33.034982 17.041515 33.126845
792 1 30.946067 34.195290 29.267178
793 1 3.265235 8.294086 9.324411
794 1 2.417951 8.550502 36.681609
795 1 24.687222 19.208655 21.099091
796 1 21.197977 21.146003 7.266540
797 1 17.878133 25.021691 35.706809
798 1 23.749675 4.412332 23.159374
799 1 34.084842 12.855358 3.045959
800 1 35.858820 24.397798 8.028038
801 1 31.129864 3.354486 19.640178
802 1 4.809048 22.837349 22.172074
803 1 1.945248 0.175738 1.601984
804 1 11.466488 26.682506 8.966066
805 1 4.100865 15.130275 36.262786
806 1 18.094215 2.277623 16.038790
807 1 11.871138 3.762149 16.164341
808 1 1.223417 17.631871 2.896279
809 1 20.346149 25.843923 19.361860
810 1 19.249513 27.977583 30.434253
811 1 1.893392 17.044643 32.788107
812 1 4.095083 18.694108 7.711677
813 1 13.173844 24.572029 11.085365
814 1 31.910280 1.663369 26.778440
815 1 22.196813 11.256873 19.376268
816 1 30.136547 2.832705 27.721417
817 1 18.819102 18.018533 3.889628
818 1 20.397678 0.572403 2.633239
819 1 27.344833 23.078690 1.539273
820 1 4.447053 31.103978 5.722193
821 1 12.924265 4.417050 23.216879
822 1 12.954390 29.899045 21.383286
823 1 27.411921 2.930152 3.920817
824 1 30.891191 16.577283 14.278951
825 1 4.244342 36.132614 24.669198
826 1 15.703042 14.758340 3.462578
827 1 3.118042 35.025770 21.902235
828 1 20.977598 24.494985 34.725738
829 1 31.549272 25.281603 16.327096
830 1 16.450352 29.298917 25.922716
831 1 28.479921 0.666601 19.760713
832 1 5.018650 20.818318 4.616823
833 1 6.117308 27.285196 31.292041
834 1 19.899845 2.078091 36.779217
835 1 13.954501 29.109809 4.684793
836 1 29.233907 7.531285 20.404959
837 1 5.892782 7.444200 23.954110
838 1 24.791032 27.270411 29.257754
839 1 2.873241 1.997182 16.249753
840 1 30.391884 20.059312 2.543354
841 1 27.715135 17.073410 35.605297
842 1 29.225721 18.903657 19.550686
843 1 20.226039 16.493807 12.608617
844 1 30.701043 29.658339 18.649496
845 1 33.337879 18.008873 1.920604
846 1 15.849771 13.814655 3.649645
847 1 29.197022 24.196553 27.112126
848 1 16.370936 27.114373 26.639446
849 1 16.489573 5.423559 1.973347
850 1 15.242338 26.491234 19.832247