ITEM: TIMESTEP
0
ITEM: NUMBER OF ATOMS
4171
ITEM: BOX BOUNDS pp pp pp
0.0 39.352244
0.0 39.352244
0.0 39.352244
ITEM: ATOMS id type x y z vx vy vz fx fy fz
1 1 11.110531 8.301082 11.121017 -0.00205488 0.02081195 0.02233042 -0.00017371 -0.00004069 0.00015352
2 1 9.641564 15.665364 7.270174 -0.00779324 -0.02004224 0.02332258 0.00004272 0.00000818 -0.00007553
3 1 29.512621 16.318504 2.051075 0.01387129 -0.04618916 -0.00214379 -0.00012167 0.00003104 -0.00007652
4 1 16.914754 34.972751 19.059326 -0.02118421 0.01137391 0.02778004 0.00004992 0.00005178 0.00003209
5 1 13.839186 10.396571 35.656817 0.04547219 0.00252855 0.00980049 0.00025133 0.00014968 -0.00016222
6 1 21.754193 33.956787 22.975875 0.04535419 -0.03401166 0.05416691 -0.00001465 -0.00005415 -0.00002055
7 1 37.570768 29.325933 24.345199 0.01746531 -0.07234439 -0.00213184 -0.00004296 -0.00018116 -0.00031237
8 1 25.726217 27.306137 24.668013 -0.05514835 0.01926183 0.03412817 -0.00000762 -0.00012910 -0.00008811
9 1 14.718167 23.097813 6.936410 -0.00494133 0.04042384 0.02058633 -0.00016249 0.00008417 0.00005459
10 1 36.177027 0.071653 24.133528 -0.01253075 -0.00877671 -0.04222366 0.00001271 -0.00004434 0.00007494
11 1 31.652997 12.010005 5.499501 -0.06686585 -0.02396840 -0.01307813 -9080.15943921 -1964.31894078 -2951.80593348
12 1 36.172910 37.980265 1.960770 0.01421611 0.00425427 0.01774113 0.00015522 0.00008762 0.00000678
13 1 27.617044 31.922096 34.688537 0.01257072 0.04424515 -0.01537846 -0.00001264 0.00000884 0.00005161
14 1 35.446029 5.443383 29.471994 0.06706394 -0.01220433 0.00951203 -0.00014755 -0.00001432 0.00002667
15 1 22.785280 24.185841 11.965456 -0.00908248 0.00480839 -0.03540657 -0.00000832 0.00003872 -0.00001471
16 1 31.940503 28.960677 17.092429 0.01876196 0.02913854 -0.07135345 -10.92879061 -3.40849649 -15.83647149
17 1 12.538538 27.247044 7.400911 0.04361879 0.04433371 0.05636155 0.00001903 0.00005500 0.00004780
18 1 13.439979 6.491510 19.506442 -0.02585156 0.00825595 -0.02447788 0.00010834 -0.00003608 0.00006677
19 1 35.239218 6.565107 5.214143 -0.00107335 -0.05741881 0.03064291 0.00019614 -0.00011768 -0.00001666
20 1 4.170163 23.877961 36.280572 -0.02882737 -0.06415636 0.00600450 0.00006183 0.00005012 0.00000438
21 1 17.650126 1.784885 27.921486 0.00827930 0.00102830 -0.01876337 -0.00004322 0.00010438 0.00013090
22 1 11.289177 3.641076 33.881462 0.01139011 -0.02813336 0.02786705 -0.00008764 0.00012422 0.00009783
23 1 15.234421 32.288124 19.637792 -0.04156865 0.00124103 0.02271803 -0.00007635 0.00002604 0.00003469
24 1 17.343655 16.501021 18.761075 -0.00346650 0.01174581 0.00654776 0.00001322 -0.00003272 -0.00015658
25 1 12.340054 34.796074 5.597872 -0.02597578 -0.04176773 -0.00150597 -0.00008862 -0.00011912 -0.00006521
26 1 7.099270 22.939379 31.067308 -0.01479851 -0.00791393 -0.00018224 -0.00017770 -0.00010940 -0.00004018
27 1 24.064601 38.864497 15.767257 0.01512011 0.06741812 0.04065480 0.00008515 0.00001221 0.00009673
28 1 36.334679 21.591637 16.037593 0.05333230 -0.00958652 -0.01434409 0.00005490 0.00003346 0.00007907
29 1 30.784288 37.461420 30.724828 -0.03785177 0.00048217 0.02886975 0.00014627 -0.00009155 -0.00021496
30 1 10.266675 21.050920 6.697497 -0.01415066 0.00405015 -0.00515095 -0.00022370 -0.00004460 -0.00001553
31 1 4.556510 4.708509 32.280103 -0.01237821 -0.01325628 -0.04037983 0.00004023 0.00010344 0.00005030
32 1 20.439564 4.212107 20.409105 -0.04162443 -0.04505849 -0.00005575 95.44381259 104.69457206 42.43491046
33 1 8.949158 20.567830 29.677118 -0.01866149 0.05887057 0.01755007 -0.00005256 0.00009400 0.00012541
34 1 18.775687 16.826176 15.652004 -0.00935797 0.00927923 0.03366769 0.00002379 0.00007075 0.00006223
35 1 32.950073 38.955636 36.410500 0.00237539 -0.00121521 0.01284233 0.00002549 0.00011031 -0.00000356
36 1 4.216265 31.935734 17.951743 -0.00420576 -0.01527563 -0.00128521 -0.00000104 -0.00002151 -0.00002404
37 1 9.643696 15.260658 30.433189 0.01205200 -0.00864853 -0.00627195 -0.00011996 -0.00006058 -0.00006102
38 1 4.534738 24.480587 1.114375 0.00204298 -0.00896637 0.03426716 -0.00005643 -0.00003955 0.00001513
39 1 20.366023 38.510746 1.166059 0.01212432 0.02211701 -0.02156584 0.00012384 -0.00000552 -0.00009337
40 1 11.972593 22.717688 33.962059 -0.00425944 -0.00508587 0.02240612 -0.00006053 -0.00000296 0.00008306
41 1 19.171134 5.390934 17.889897 0.02716370 0.03213920 -0.01725472 0.00106036 -0.00086084 0.00216531
42 1 15.578696 6.193135 5.407132 -0.02894965 0.01294811 -0.00622385 -0.00010163 0.00001325 -0.00000091
43 1 29.521677 32.243493 37.884830 -0.01980424 -0.03847871 -0.07031989 0.00000567 0.00000194 -0.00002166
44 1 7.088705 7.261294 10.364033 -0.01947433 0.01635126 0.00907597 -0.00013792 -0.00006571 0.00025620
45 1 25.428760 6.864007 14.140142 0.00400185 0.00099575 0.02388536 -264.63635693 177.01486554 -66.60511335
46 1 7.231233 30.643968 22.557667 0.04017623 -0.02436675 0.02481704 0.00001348 -0.00005597 0.00001101
47 1 6.289002 33.083747 9.342187 -0.01415501 0.01257418 -0.01533216 0.00009167 -0.00006103 -0.00011723
48 1 37.998854 4.002672 37.123137 0.03327829 -0.00616578 -0.00579496 -0.00009057 0.00012814 -0.00007335
49 1 38.058515 37.484345 21.481230 -0.02812909 0.00138224 0.00387562 -0.00005408 0.00004907 0.00003453
50 1 24.729626 27.465424 18.285150 -0.09318978 -0.00726319 0.03628915 0.00008477 -0.00009951 -0.00008216
51 1 15.452385 20.310833 20.745208 -0.02984224 0.02421214 -0.04899902 -0.00002666 0.00003826 -0.00002590
52 1 26.845662 36.687596 19.438042 -0.03412854 -0.02081750 0.02516834 -0.00016621 -0.00004171 -0.00005586
53 1 0.182121 5.378675 13.322684 -0.01792667 0.05304408 0.01476875 -0.00001624 0.00016893 0.00005017
54 1 25.583536 26.306890 26.743200 -0.03902367 -0.00467922 0.01947744 0.00009936 -0.00002181 0.00011972
55 1 32.151192 12.318155 39.195678 0.01527825 -0.01924273 -0.00176003 0.00004577 0.00011990 -0.00012495
56 1 18.731347 10.581019 33.211307 -0.06443748 0.02926448 -0.00246796 0.00005867 -0.00012969 0.00000634
57 1 1.711106 28.126430 9.856352 -0.01954602 0.00232661 0.02905511 0.00007413 0.00001704 -0.00005249
58 1 22.682377 32.405958 32.170156 0.01968443 -0.02126866 0.02631948 -0.00000728 -0.00000937 0.00010051
59 1 32.232758 23.281257 11.259051 0.02084578 -0.03435650 -0.02867906 40.11626103 19.45471798 -16.80144123
60 1 13.502587 2.412438 24.322097 -0.00767402 0.01244921 -0.01355095 -0.00001677 0.00010824 0.00000674
61 1 25.011651 11.582377 33.344980 0.01360536 0.05981779 0.00180600 -0.00010618 0.00005438 0.00012570
62 1 25.272780 27.567909 10.025458 0.04199933 -0.01040181 0.02658375 -0.00011851 0.00012868 -0.00003229
63 1 37.426471 7.305885 30.449494 0.00689425 -0.05202969 0.02602552 0.00005868 -0.00013586 0.00003823
64 1 21.732251 37.580852 30.755617 0.00294975 0.00530821 0.02925265 -0.00008552 -0.00014184 0.00002537
65 1 24.241647 22.756169 15.045937 0.03157592 -0.04471669 -0.01142656 -0.00005668 -0.00004227 -0.00010123
66 1 6.458342 11.123215 8.481871 -0.00829633 0.00639574 -0.01733013 0.00016481 -0.00016139 -0.00011001
67 1 24.620009 36.218503 34.854866 -0.03846821 -0.04451731 0.02197534 -0.00001100 0.00008470 -0.00007111
68 1 14.727093 25.711323 28.007358 -0.04438996 0.03184018 -0.01535346 -0.00017505 0.00014054 -0.00009625
69 1 21.936454 28.443323 37.245541 0.01139876 0.08843971 -0.00836418 -0.00001321 -0.00010799 -0.00019869
70 1 33.308371 26.205678 17.986927 0.06593050 0.04306464 -0.02105790 0.00041984 -0.00095611 0.00038396
71 1 21.419083 5.283373 20.845898 -0.00581879 -0.00985238 -0.01188131 -95.61092516 -104.56643507 -42.63562078
72 1 21.435540 15.244234 19.745329 -0.00143451 0.08109067 -0.01546796 -0.00001905 0.00009981 -0.00007168
73 1 25.919594 2.301324 1.690897 -0.03763943 -0.01423431 -0.02029916 0.00000017 0.00006767 -0.00000674
74 1 23.326721 19.476163 35.327596 -0.04403912 0.00245238 0.00956190 -0.00006664 -0.00016436 0.00000505
75 1 0.850917 34.808111 3.473676 0.00892312 0.00357346 0.04167520 -0.00003017 0.00020554 0.00010152
76 1 8.415783 33.847839 18.334755 0.03855230 0.00117033 0.04410991 -0.00015722 0.00005019 -0.00004831
77 1 19.526918 37.156469 15.441714 0.05102381 -0.01306802 -0.05820899 -0.00003209 -0.00002752 -0.00020073
78 1 27.670643 18.400515 29.424462 0.00568421 -0.01323136 0.00960037 -0.00007775 0.00016831 -0.00001173
79 1 36.940786 16.388009 17.923800 0.02359943 0.01652684 0.02525780 -0.00008444 -0.00002046 0.00024929
80 1 26.413728 36.396986 34.030870 -0.05179787 0.01844531 0.04124987 -0.00011517 -0.00005649 0.00001952
81 1 29.517068 13.873890 13.627310 0.00625507 -0.02194153 -0.06747069 0.00001664 0.00012182 0.00018437
82 1 9.308394 16.882533 10.501562 -0.06828143 0.00906602 -0.02628109 -0.00004719 0.00006086 0.00006976
83 1 37.670789 4.417931 11.294292 -0.04127417 -0.02247201 -0.04094523 0.00001686 0.00022216 0.00009092
84 1 1.107404 6.616433 2.533892 -0.00985047 -0.00253110 0.01138876 0.00016229 0.00005539 0.00009122
85 1 11.830058 35.347344 37.251209 0.04630483 -0.02516745 -0.00493215 0.00000549 0.00002101 -0.00004674
86 1 30.271046 25.739428 15.171967 0.05232055 -0.06922519 -0.00189951 -0.00062184 -0.00076115 -0.00068073
87 1 9.018126 23.085589 9.788663 0.02876579 0.00441368 -0.00631725 -0.00009921 0.00001315 0.00003549
88 1 19.659849 3.498581 7.158397 0.00214763 -0.01129506 -0.01050487 0.00004444 0.00015634 0.00006061
89 1 29.302299 28.458691 29.757673 -0.00266016 -0.00312039 -0.05597371 -0.00006778 0.00006482 -0.00001527
90 1 8.591136 25.996360 36.322678 -0.00970430 -0.01181740 0.04593434 -0.00020299 -0.00000054 -0.00001112
91 1 34.169889 15.547506 29.837518 -0.01956524 -0.01939783 -0.00287927 0.00017054 0.00004459 0.00009957
92 1 34.434012 12.418387 3.922555 -0.03683147 0.00265334 -0.03306311 0.00102914 0.00013344 -0.00065136
93 1 38.811762 24.632842 16.946342 0.05971038 0.00268189 -0.01303781 -0.00014701 0.00008914 0.00021412
94 1 11.896129 5.864600 20.214279 -0.00243489 0.03720006 0.02413181 -0.00006558 -0.00003572 0.00001925
95 1 38.428306 29.876539 28.450118 -0.04710403 0.03900899 -0.06583387 0.00009289 -0.00005295 -0.00000710
96 1 31.960065 10.756229 27.339994 0.04268433 0.01554718 -0.06172042 0.00004965 0.00000204 -0.00003519
97 1 3.143125 10.325972 9.528182 -0.03501322 -0.01994389 0.03358830 -0.00009600 -0.00000826 -0.00006417
98 1 33.000329 21.980577 16.946258 0.03939730 -0.00183901 -0.00255632 0.00011008 -0.00014956 0.00018340
99 1 18.286155 38.825892 21.764469 0.01328097 -0.04343013 -0.01314093 -0.00008516 -0.00014752 0.00008455
100 1 31.017871 6.894969 13.862088 -0.03857738 -0.01130721 0.00749556 0.00030193 -0.00001197 -0.00004337
101 1 29.529032 37.232875 28.942369 -0.01932392 -0.02704153 0.03939440 0.00008943 -0.00000672 0.00006701
102 1 35.286240 16.814831 24.786383 -0.00673847 -0.02640022 0.00389008 0.00012712 -0.00005641 -0.00007503
103 1 3.625535 11.397365 9.462719 -0.02774025 0.00051955 0.00646747 0.00008594 0.00003090 -0.00016083
104 1 37.448756 7.170061 9.465508 0.00386686 -0.00674808 -0.00285989 766915.04249199 637481.03505008 459663.96989666
105 1 17.030642 14.820587 4.045051 0.03389510 0.00442977 0.00199375 -0.00005967 -0.00005189 0.00008498
106 1 18.667047 10.402984 10.351998 -0.00680876 0.02927732 -0.02704134 -44736704.34855775 82712428.93123658 -6568448.86595522
107 1 7.606651 39.152514 0.237286 -0.01290299 0.01640002 -0.01476662 0.00006598 -0.00004075 -0.00005028
108 1 9.752055 29.845713 23.121166 0.03949464 -0.02025364 -0.02055512 0.00002021 -0.00009578 -0.00005777
109 1 16.473939 14.824552 18.558457 0.01192791 -0.00186561 -0.00443586 0.00006213 -0.00000059 -0.00004112
110 1 18.091270 34.639868 23.645735 0.03733767 0.00533122 -0.04197662 0.00003579 0.00003949 0.00000091
111 1 4.371465 33.880336 36.111004 0.02112153 -0.00885854 -0.03326556 -0.00003700 0.00006328 0.00000028
112 1 26.906651 14.451687 25.295555 0.04677627 -0.02311959 0.00493723 -0.00004739 -0.00007597 -0.00012563
113 1 0.725122 18.324187 4.676362 0.03925806 -0.02578064 -0.04310183 -0.00005761 0.00009832 0.00008046
114 1 24.382264 6.547057 35.605023 -0.01851081 -0.03060570 -0.01969465 -820.77542255 -2285.50888621 -3783.11479321
115 1 37.033574 35.527841 29.444304 0.05357133 -0.03193574 -0.07851188 0.00000550 -0.00000419 0.00003288
116 1 34.089351 21.023813 29.567384 0.03095869 -0.06098886 -0.01693696 0.00004566 -0.00011132 0.00004119
117 1 2.298699 26.855876 24.157223 -0.03563416 -0.03409112 -0.05546818 0.00002289 -0.00003766 -0.00012828
118 1 20.874996 1.249712 4.910806 0.04966566 -0.06595994 -0.07140742 0.00005307 0.00006701 -0.00007674
119 1 11.379336 19.349623 33.913366 0.01076684 -0.01131960 -0.01479459 0.00020750 0.00003241 0.00021727
120 1 7.232352 38.211457 19.035163 -0.00694768 -0.00542236 0.04978266 0.00000171 0.00005349 0.00005776
121 1 32.907220 38.777153 22.632183 -0.03456810 0.06929367 -0.01041491 -17851.22016845 15553.27482438 -19708.76105181
122 1 19.260452 13.336919 36.705147 0.01458062 0.01934520 0.01079090 -0.00004643 -0.00004263 -0.00004405
123 1 33.216166 14.014845 25.568605 0.05660652 0.03649951 0.04409951 -0.00006775 -0.00007187 -0.00001194
124 1 28.347617 8.476261 22.073052 -0.01266755 -0.02766966 -0.03136350 0.00002835 -0.00000393 -0.00000321
125 1 32.163856 5.182855 24.340896 0.03584199 -0.03233788 -0.01679131 0.00001244 0.00002373 0.00010149
126 1 1.274032 24.261574 23.957782 -0.01681179 -0.00572177 -0.04350010 0.00003274 -0.00007152 -0.00007006
127 1 9.268990 32.873484 35.670469 0.04086221 0.00486858 -0.05712886 -0.00015423 0.00004270 0.00008471
128 1 12.358889 6.636048 34.783964 0.01295962 -0.02965382 0.00286535 0.00020556 0.00006623 -0.00011197
129 1 24.929935 29.894633 10.632222 0.04087582 0.02650061 0.01588207 -0.00004915 -0.00003330 -0.00003204
130 1 7.089288 18.290784 34.268704 -0.02486163 0.01591052 0.00839002 0.00003332 -0.00012549 0.00005812
131 1 11.463934 38.928285 24.963941 -0.00085074 0.03699231 0.04385123 -0.00017155 0.00012130 0.00006749
132 1 16.679576 15.754870 16.798304 0.04469366 0.02922594 0.02215148 -0.00008119 -0.00002816 0.00000847
133 1 34.025584 2.937556 11.143962 -0.03892500 -0.01398121 0.02782895 -0.00004753 -0.00018160 0.00026563
134 1 25.353918 20.631431 34.607701 -0.01057745 0.00235818 0.00326312 0.00009355 0.00001951 0.00010783
135 1 5.207520 0.785302 37.794681 0.00277552 0.02568648 0.01596249 -0.00006213 0.00003291 0.00024786
136 1 9.530594 29.344776 8.868798 -0.04868854 0.05240341 0.03508942 -79.80210037 82.93628788 394.53006922
137 1 11.568515 38.160203 16.590143 -0.00221275 -0.00604675 0.01880938 -0.00008198 0.00009759 -0.00008385
138 1 12.374456 11.421227 35.227957 0.01037252 0.00888383 -0.04146636 0.00004137 0.00009364 -0.00001573
139 1 27.893106 22.931278 31.546907 -0.02011060 -0.00755215 0.03597163 -0.00003054 -0.00000184 -0.00004281
140 1 30.511481 10.001683 34.940884 0.02722209 0.00068763 -0.04176625 0.00012954 0.00022138 -0.00008612
141 1 18.227089 24.126708 33.893243 0.05708562 0.00354273 0.01383641 0.00009906 -0.00015986 -0.00001861
142 1 18.037900 37.881570 35.300146 -0.00345395 0.03436539 -0.02214066 0.00000836 0.00019550 0.00006953
143 1 6.396937 26.100795 36.759977 0.00418377 -0.05163109 -0.05425743 -0.00019893 -0.00005985 0.00005193
144 1 17.763386 28.861230 9.390909 0.00109747 0.00777284 -0.00544881 0.00001264 -0.00010913 0.00008584
145 1 6.874926 38.708870 7.769662 0.00230590 0.01705431 -0.00592461 30.86385890 -19.21794094 -278.87097581
146 1 5.659336 34.443092 21.981646 0.00220938 0.03964985 -0.02034618 0.00008828 0.00025649 0.00005418
147 1 32.155753 33.140730 15.372156 -0.01869497 0.04025229 0.00324726 0.00005084 0.00077405 -0.00042503
148 1 0.538174 34.434198 17.464996 0.02357750 0.06217023 0.02521946 0.76363751 -14.84748781 -2.14482184
149 1 36.891922 33.350573 33.669739 -0.01882124 0.01263337 0.02967657 0.00004644 -0.00000324 0.00005003
150 1 0.353271 34.294205 21.744801 -0.02110277 -0.01321349 -0.03933410 -0.00016321 0.00003344 0.00117563
151 1 7.291905 17.815215 11.667158 -0.01607135 0.04190966 -0.01247268 0.00000415 0.00000088 0.00012883
152 1 4.591022 10.226659 1.555828 -0.00277223 -0.07241938 -0.02161650 0.00003535 0.00011705 0.00006175
153 1 29.400212 10.905883 38.589618 0.00647828 0.04813384 -0.03396196 -0.00004959 -0.00005344 -0.00010491
154 1 21.108267 21.006520 2.847006 0.03514258 -0.02259056 0.04145125 0.00017079 -0.00003397 0.00006334
155 1 3.478388 32.498517 20.930364 -0.00093026 0.04664439 0.01969885 0.00014527 -0.00027925 0.00044564
156 1 35.534817 35.981718 18.958983 -0.02837917 0.00039257 -0.01281624 -0.00039441 0.00001322 0.00024334
157 1 18.123760 11.643793 33.261841 -0.00147060 0.04529720 0.01581684 -0.00005355 -0.00005033 -0.00010843
158 1 12.541593 18.868217 6.487239 0.01660342 0.00216083 0.00983217 0.00003668 -0.00007318 -0.00022307
159 1 36.063915 36.040917 7.853513 0.00891506 -0.00022427 -0.03198169 -0.00008623 0.00003141 -0.00002044
160 1 26.082128 1.981955 21.214485 -0.03382966 -0.03335182 0.04837075 0.00007739 -0.00016024 -0.00002730
161 1 8.348594 8.276143 14.252193 -0.01765187 -0.03218117 -0.00246897 0.00006954 -0.00010121 0.00003677
162 1 18.652526 19.530152 3.793607 -0.00736750 0.00095397 -0.00400716 0.00008935 0.00005624 -0.00002836
163 1 18.011772 35.755739 22.834027 -0.03596271 -0.08027554 -0.00762583 0.00007797 -0.00012424 -0.00006486
164 1 1.791784 4.603524 35.259351 0.03961072 0.03029417 0.03221021 0.00002850 -0.00011543 0.00007525
165 1 21.906031 14.075359 19.532293 0.00488641 -0.00066833 -0.01033247 0.00001963 0.00019191 0.00005614
166 1 8.244240 37.364565 37.985289 -0.04072174 -0.02137569 0.00511674 0.00004626 0.00011346 0.00011733
167 1 12.502503 31.090762 7.543594 -0.04432479 0.02346363 0.01261511 0.00205135 0.00118313 -0.00077404
168 1 23.530132 16.548966 7.942765 -0.02042987 -0.00494764 -0.00660493 -0.00004391 -0.00016137 0.00013921
169 1 32.448512 25.358758 36.741943 0.02959068 -0.01519740 -0.02148807 -0.00004330 0.00002429 -0.00004688
170 1 28.015913 24.197135 15.475128 -0.01054889 0.01921580 0.02576588 -0.00017552 -0.00010987 0.00009439
171 1 25.959611 18.063395 20.567050 0.00266333 0.01602818 -0.02894123 0.00010587 -0.00022723 -0.00001100
172 1 13.172823 10.378880 12.563967 -0.00366790 0.00341541 -0.04238899 -0.00013790 -0.00019545 0.00020669
173 1 1.289620 28.832816 34.895732 -0.01065541 0.05950773 0.02052385 1.81140069 1.12991296 4.82940105
174 1 3.316422 7.353178 10.682742 0.00226696 -0.02433129 -0.00377262 0.00030124 -0.00015481 0.00008722
175 1 5.526521 17.824261 3.121613 0.01033079 0.03271606 0.05560949 50202.05552169 -319293.17341005 239924.62207184
176 1 29.320999 34.081767 7.030061 0.01316270 0.02658907 0.02080089 0.00002171 0.00010663 0.00006352
177 1 3.478388 6.339776 20.220803 0.03046541 -0.03728460 0.00686932 181338.67126736 1496.34173476 81525.11962650
178 1 33.653173 23.828473 29.298587 0.01477478 -0.02590120 -0.01379366 1.72774740 7.78328601 -30.48729474
179 1 17.109419 22.958175 37.111246 -0.03659704 0.02083979 -0.03874969 -0.00014087 -0.00009219 -0.00013422
180 1 35.104246 2.014635 15.991717 0.01643842 0.00103632 -0.01749680 16.72323625 7.91062451 -22.22896791
181 1 19.885653 3.066434 3.433056 0.01204846 0.06641420 0.00072570 0.00003654 0.00002089 0.00005218
182 1 9.449650 28.760785 2.710039 0.01670951 -0.03721889 0.01790336 -0.00007129 -0.00016710 -0.00014905
183 1 36.388110 13.517441 29.696403 0.01656978 0.03523833 0.02902841 0.00004046 0.00003468 0.00005092
184 1 25.453610 16.161959 2.747973 -0.01489521 -0.03561117 0.03217525 0.00001840 0.00016564 0.00007274
185 1 33.567105 28.282420 30.306030 0.03250622 0.04663415 0.01620320 -624.79796675 787.40059241 506.94745392
186 1 6.167988 27.190723 23.540200 -0.01317210 -0.01196767 -0.03841845 100335884.38486682 161479390.71677613 -107154543.87938705
187 1 3.898942 24.173959 25.408722 0.04211147 -0.02588121 -0.04779283 -0.00063692 -0.00088874 0.00048230
188 1 17.283901 14.138119 10.244682 -0.04100382 0.05777502 0.03640100 -0.00049750 0.00147829 -0.00006378
189 1 23.568365 15.852771 16.184254 -0.00451935 0.06463658 0.04270859 -29837.72739527 6436.88822268 -14549.33252809
190 1 29.780969 20.175490 0.067674 0.02193349 0.03884017 -0.06295272 0.00004017 -0.00015639 0.00002472
191 1 32.769896 21.627384 3.086030 -0.00532495 0.01982591 0.02566457 0.00014313 0.00010195 -0.00007688
192 1 22.628298 16.668482 3.442126 -0.02769435 0.01691557 0.01267984 -0.00010263 -0.00006051 0.00019521
193 1 26.660490 23.804967 32.692662 -0.00107494 -0.01907813 -0.03744322 0.00008735 0.00004785 0.00014298
194 1 29.187364 30.280232 37.124442 0.03874597 0.00386092 0.02732352 -0.00008586 0.00007484 0.00001750
195 1 32.656892 34.826689 12.151879 -0.01129850 -0.04187993 -0.04709606 -0.00017058 -0.00007751 0.00006600
196 1 27.364196 28.215073 11.396506 0.03728896 -0.00927702 0.04924404 0.00003442 0.00008087 -0.00003302
197 1 18.949179 18.887757 1.196112 0.02468183 -0.00578537 -0.00716952 -0.00007559 -0.00004423 0.00004148
198 1 8.896022 5.307257 37.042132 -0.01854220 -0.01347102 -0.02749769 0.00006228 -0.00005120 -0.00002304
199 1 21.617030 23.531202 7.870338 0.01254951 -0.03628824 -0.02310528 0.00006042 -0.00008062 -0.00004261
200 1 30.048178 7.909121 26.881571 -0.01041100 -0.00864068 -0.01414928 -0.00006957 -0.00002048 0.00003615
201 1 31.389948 23.576257 6.743261 -0.00637156 0.00363167 -0.02059336 -0.00001059 0.00005523 -0.00062454
202 1 2.921660 15.465872 25.846144 -0.01518141 0.00515466 -0.00771404 0.00001316 -0.00007082 0.00001520
203 1 4.590722 15.306523 25.491475 -0.03550517 0.00015561 -0.00061718 4727952.18050242 13275276.85755437 49471263.55180821
204 1 32.176866 27.396663 31.324929 0.03534188 -0.00212637 -0.00462874 4.16975243 2.65761189 -3.05578341
205 1 11.699913 20.617810 9.646826 -0.02013025 0.05639496 -0.02658461 -0.00002644 -0.00002979 0.00013817
206 1 24.521723 4.529994 28.007446 -0.03312050 0.06078137 0.00553952 -0.00002582 -0.00000276 -0.00000457
207 1 8.412301 33.059085 26.069188 -0.01242501 0.02442719 0.00743109 0.00009450 -0.00003055 0.00015719
208 1 1.139645 37.174738 34.647532 0.04257586 -0.05338952 -0.02303376 0.00001610 0.00001817 0.00004424
209 1 32.001274 4.028941 9.404699 -0.04836391 0.05567855 -0.02326217 -0.00022782 0.00006411 0.00006767
210 1 33.712969 9.807887 16.534474 0.00326170 -0.00690881 0.03736462 -20978.41270657 14700.83928338 12655.09298941
211 1 22.564608 35.025550 34.051800 -0.01945119 0.00081326 0.00683408 0.00013700 0.00000463 -0.00015297
212 1 16.613909 2.935675 14.791983 0.03298311 -0.04928891 -0.01734344 -0.00000539 0.00000754 0.00006715
213 1 26.726518 4.162444 6.448860 -0.01060672 0.00415218 -0.01635427 -0.00015607 -0.00000216 -0.00009668
214 1 23.182869 7.032052 2.961929 -0.00295552 -0.01915201 -0.00614016 0.00008513 0.00007805 0.00014268
215 1 9.647675 31.561028 16.501156 -0.00649214 0.04806177 -0.02235232 0.00006027 -0.00005812 0.00002620
216 1 2.360296 27.429755 4.212204 -0.06695440 0.02309444 -0.00931148 -0.00014629 -0.00002104 -0.00001792
217 1 15.592888 17.311839 26.911421 -0.00653730 -0.05064463 -0.04183023 0.00009148 -0.00007001 -0.00012394
218 1 24.145413 27.252848 19.950255 -0.02322442 0.02134353 -0.03920750 0.00009169 -0.00006234 0.00005381
219 1 8.023055 11.444740 15.117843 -0.00085795 -0.01433615 0.01099631 -0.00006199 0.00002418 -0.00003877
220 1 19.359362 11.443446 21.636836 0.00115947 0.00597558 -0.02033250 0.00008400 0.00005282 0.00012460
221 1 19.699400 33.877161 38.753508 0.04171231 -0.03380020 0.01619015 0.00000844 0.00014928 0.00000271
222 1 21.366236 25.744079 33.483473 -0.01519401 0.00775701 -0.00403893 0.00003455 0.00004681 0.00010094
223 1 13.704253 8.212836 5.272643 -0.00937550 0.02415452 -0.01828421 -0.00014647 0.00001308 0.00005934
224 1 15.113337 30.557256 27.632254 0.01844565 -0.00732048 0.06072757 0.00018759 0.00021500 0.00006805
225 1 7.412869 10.147678 1.824195 -0.02134412 0.01391142 -0.00056496 -0.20751130 -0.00771985 -0.35399386
226 1 21.005223 7.394842 5.464942 -0.00416711 -0.01407776 -0.00534841 0.00011637 -0.00000014 -0.00000176
227 1 37.019500 16.786597 20.894748 0.03692086 -0.01104784 -0.02361300 0.00013109 0.00003749 0.00004311
228 1 10.057721 30.661257 0.830590 0.01075301 0.04550633 -0.00764860 0.00000459 0.00010569 0.00004731
229 1 15.231678 33.830853 16.248657 0.01458506 -0.00858862 0.00503122 -0.00002259 -0.00016321 -0.00012262
230 1 1.825478 36.350303 26.409355 0.05166626 0.00170707 -0.02500206 -0.00001430 0.00003926 0.00003191
231 1 18.340254 28.898572 5.548028 0.03882624 -0.05532339 -0.00030089 -0.00010068 -0.00006122 -0.00002315
232 1 38.814695 18.053473 5.193298 0.00861672 -0.04646182 0.00528021 0.00003449 -0.00001438 -0.00014884
233 1 31.035658 4.765157 25.057600 0.03556761 -0.06094269 -0.04695070 -0.00007980 -0.00011555 -0.00001266
234 1 21.231054 27.674583 7.631711 0.06405613 0.09901551 -0.01184817 -1.97652460 -3.01185074 1.55245362
235 1 29.856213 5.656667 36.850032 0.04239177 -0.03494398 0.01381270 0.00011449 -0.00017522 0.00004950
236 1 16.718758 32.415794 15.357953 -0.04131630 -0.00664333 -0.00414257 -0.00007956 -0.00009255 -0.00004776
237 1 24.476067 32.148332 3.855983 0.03995940 0.01358860 0.05845535 0.00012815 0.00003715 -0.00008610
238 1 16.468141 35.681616 30.284614 0.00345558 0.01826527 0.00077028 808.18136349 772.03989492 65.44818545
239 1 26.111415 12.434905 4.593086 -0.00860997 0.04214091 0.00016958 -0.00018150 -0.00004563 0.00001278
240 1 7.577738 4.061176 9.565207 -0.00057832 -0.07784767 -0.09403697 0.00033634 0.00052333 0.00017848
241 1 8.098935 29.124193 30.352194 0.03445260 -0.00625170 -0.01049419 0.00008991 -0.00004962 0.00004014
242 1 3.701626 19.346420 16.184279 0.01131147 0.00092205 -0.00250496 647032.02429411 -180824.67667828 -708806.66420626
243 1 28.337359 5.656529 0.449799 0.01990104 0.02001276 0.01630512 0.00015516 0.00005945 0.00013470
244 1 18.989989 6.090342 27.731172 0.01512542 -0.02241732 0.02677619 -0.00001953 0.00001537 0.00006880
245 1 17.947666 11.956820 38.907165 0.01745934 -0.00450137 0.04415131 -0.00005554 -0.00012049 -0.00011724
246 1 24.198968 29.903471 36.054301 0.03440937 -0.02607130 0.00640423 -0.00013991 0.00011281 0.00001869
247 1 23.037788 27.306864 24.897953 0.02148864 0.04360520 0.04535215 0.00003369 0.00009196 -0.00002890
248 1 15.031600 38.797937 13.014675 -0.02327967 0.01991759 -0.00340133 -0.00013999 -0.00005497 0.00004496
249 1 23.692126 3.278250 16.866120 -0.06619274 -0.05778727 0.02489739 0.00028285 -0.00054835 0.00020228
250 1 32.697430 36.018832 38.526655 -0.01891137 0.01331537 0.01093828 -0.00024393 -0.00009129 -0.00000773
251 1 16.738017 11.228584 30.005987 0.00221470 0.01370226 -0.01921442 -0.00005575 -0.00016541 -0.00003573
252 1 10.141143 2.017170 23.221992 -0.00588760 0.02755216 -0.04762799 0.00001930 -0.00002498 -0.00005940
253 1 3.775022 9.527539 26.590673 0.00303011 -0.05054384 0.01589198 -0.00004750 -0.00001730 0.00011141
254 1 33.010856 11.616938 7.501684 0.03757398 0.01386018 -0.00389406 -0.12459277 0.03612005 -0.18389297
255 1 16.052155 6.228417 33.148121 0.06385664 -0.03406348 0.01139580 46519.69066494 28647.45977668 -35978.54295205
256 1 38.670269 34.684859 34.429736 0.05587367 0.02375489 -0.01682403 0.00017104 0.00005634 -0.00008461
257 1 26.399170 18.442498 2.934945 0.02163149 -0.02008878 0.00011807 0.00008097 -0.00011845 -0.00014051
258 1 11.207380 35.767235 35.484591 -0.01648066 -0.03696973 -0.05966630 -0.00011191 -0.00014319 -0.00005554
259 1 6.163512 1.083278 22.981125 0.00729254 0.05766344 -0.06106614 0.00008474 -0.00009073 0.00009433
260 1 16.016489 7.930981 9.703513 -0.06034327 0.02756909 0.00909792 -0.00152089 -0.00158826 -0.00055830
261 1 6.373105 22.387664 32.791736 0.00832213 -0.01971801 0.02557245 -0.00013491 0.00015283 0.00022456
262 1 17.266316 22.130118 23.938189 -0.03972936 0.02146186 -0.01326584 0.00010767 -0.00021005 0.00006338
263 1 27.205879 20.653982 35.144802 -0.02978078 -0.00080006 -0.03271397 -0.00012117 0.00001887 0.00015636
264 1 11.353339 36.485510 7.068111 -0.00820514 -0.02041149 -0.00950704 -1750.46166207 -2996.33395598 1555.14821372
265 1 36.551303 20.550811 13.021003 0.00739490 0.00429545 -0.03037987 0.00011841 -0.00020278 0.00021072
266 1 1.224588 32.810814 12.434789 0.02484258 -0.00547294 0.00782980 -0.00004771 -0.00012583 -0.00028483
267 1 18.944169 38.043106 20.493375 -0.02478269 0.01432175 0.00626562 0.00004162 -0.00017384 -0.00011243
268 1 23.693194 8.642636 6.202435 -0.05905143 0.01105543 0.04805249 -0.00003061 -0.00005794 -0.00004863
269 1 39.036693 23.497141 36.764656 -0.00210483 -0.00419229 -0.00405690 0.00007736 -0.00011864 0.00002134
270 1 20.550033 35.152538 31.432004 0.02085190 0.01681520 0.04328755 0.00093661 -0.00020327 0.00018509
271 1 31.076864 14.826563 28.815035 0.00532436 -0.09917534 -0.02408580 0.00017085 0.00005509 -0.00007519
272 1 2.141278 10.504217 5.551095 -0.04468135 0.02223468 -0.00082440 0.00012503 0.00010545 -0.00002614
273 1 21.780422 37.557203 24.646032 -0.00464069 0.01061933 -0.07910735 0.00001789 -0.00002667 -0.00006478
274 1 0.385236 32.883478 7.084703 -0.01420426 -0.01358600 -0.01014033 0.00008742 0.00002528 0.00010826
275 1 31.309122 1.198154 15.766890 0.01861000 0.02337506 0.03252475 -76.51606081 -29.40091175 85.66337603
276 1 20.621129 15.615457 26.840458 0.00871000 0.00062311 -0.08887489 -0.00008324 0.00005336 -0.00007901
277 1 8.370472 9.305081 16.019038 -0.03122425 0.00579199 -0.11018385 -0.00003889 -0.00000037 -0.00005833
278 1 1.959585 1.970958 11.232967 0.00475424 0.01548090 0.04028593 -0.00004305 -0.00001116 0.00019216
279 1 24.656255 30.941305 11.592174 -0.02644475 0.03684371 0.01427627 0.00010946 -0.00005865 0.00014834
280 1 4.142441 2.739112 8.144794 0.05900372 0.04302692 -0.00384169 -0.00059722 0.00085540 0.00017532
281 1 6.504738 10.316183 9.154125 0.00383842 0.04023949 -0.02333672 -0.00004543 -0.00009547 -0.00007400
282 1 36.593143 4.241451 13.570581 0.01343423 -0.03797156 0.03982554 0.00108473 0.00143551 -0.00125326
283 1 16.952197 31.838555 20.228309 0.01927758 -0.05568694 0.05508863 -788.81345823 248.61615379 331.88349505
284 1 23.406810 35.484578 28.165559 -0.04138754 0.01601506 0.02675449 0.00006488 0.00008067 -0.00005269
285 1 21.156320 19.037130 20.072562 -0.03850467 0.03179600 0.02804680 -0.00026778 0.00003094 0.00012858