LAMMPS data file for silica system 59

3953 atoms
2 atom types

0.0 40.285361 xlo xhi
0.0 40.285361 ylo yhi
0.0 40.285361 zlo zhi

Masses

1 28.0855  # Si
2 15.9994  # O

Atoms  # atomic

1 1 26.449027 22.191452 28.711596
2 1 7.380070 24.928651 20.079790
3 1 12.579425 38.743984 35.944887
4 1 34.386622 30.154095 29.593015
5 1 31.381865 24.328259 22.262118
6 1 20.800852 14.206560 12.307860
7 1 6.695987 21.795866 3.392332
8 1 13.123490 38.114849 36.805040
9 1 4.755529 28.897572 19.671309
10 1 2.002268 13.672774 20.650998
11 1 20.814061 37.398612 31.083922
12 1 33.300725 17.517590 9.074086
13 1 0.707285 15.423209 11.314649
14 1 12.106293 29.796025 20.821940
15 1 3.737746 2.938834 25.798395
16 1 5.469682 20.819540 29.612625
17 1 22.490725 22.196331 21.016928
18 1 23.406082 21.577532 25.342887
19 1 16.800419 31.776142 25.242380
20 1 33.088569 38.053131 36.977616
21 1 0.677718 6.419716 7.824657
22 1 11.316301 32.649535 24.210313
23 1 25.315270 20.736182 4.635739
24 1 10.959304 28.032711 9.171551
25 1 27.704641 34.457656 18.409271
26 1 35.083166 34.205387 21.213134
27 1 39.066280 10.510826 7.461716
28 1 35.499289 16.151640 7.717828
29 1 5.251107 14.448222 34.223356
30 1 35.849963 11.372784 25.044922
31 1 12.541461 30.464092 12.009579
32 1 40.123698 37.939363 36.200637
33 1 10.510615 33.997447 22.803063
34 1 24.247241 29.823053 37.827934
35 1 28.418903 21.212496 37.665589
36 1 7.045264 29.321424 30.752772
37 1 19.071928 20.614779 29.675329
38 1 35.249251 14.032553 30.571746
39 1 37.883572 24.985964 23.275565
40 1 11.224427 24.994486 15.796088
41 1 8.993148 20.755561 38.291527
42 1 23.989589 15.086916 37.871530
43 1 17.684205 15.933366 17.589842
44 1 38.998784 13.164226 6.340178
45 1 1.294246 16.807626 38.741440
46 1 3.978692 18.750191 17.691748
47 1 21.832244 1.675231 27.669610
48 1 40.128568 25.497135 2.919777
49 1 23.664384 21.435301 28.822901
50 1 16.460325 29.863855 7.560360
51 1 21.538750 38.746958 12.083166
52 1 8.409542 27.628356 28.495645
53 1 5.597544 14.497297 36.361255
54 1 21.291096 23.053896 12.400280
55 1 30.860244 18.913676 12.413647
56 1 7.743380 18.060018 39.899091
57 1 35.674308 24.362263 7.355632
58 1 29.299580 33.301636 10.960057
59 1 37.797423 15.959964 5.181276
60 1 34.273763 16.283153 9.473199
61 1 9.781999 38.794899 18.318056
62 1 24.833411 15.830561 4.920723
63 1 35.199113 32.258432 32.771654
64 1 38.341398 10.295995 26.359556
65 1 12.826655 11.266181 8.213907
66 1 29.940414 13.915896 23.631176
67 1 17.696328 39.311992 26.370171
68 1 28.124791 27.554955 21.704054
69 1 35.113317 21.705209 36.527610
70 1 13.733806 14.734061 6.875630
71 1 5.842057 16.676778 12.765296
72 1 11.238835 40.229708 16.037078
73 1 23.504136 19.846482 34.951188
74 1 26.240808 30.086271 2.268832
75 1 33.291702 19.127940 10.480452
76 1 30.236283 2.781333 25.723441
77 1 12.363372 30.575123 29.380544
78 1 36.062670 6.802636 1.725249
79 1 31.363429 32.379516 20.221325
80 1 27.583450 11.047836 4.839350
81 1 8.397575 15.336464 9.132132
82 1 22.923910 22.841754 34.835313
83 1 31.665351 3.459050 37.177039
84 1 19.261885 16.568864 14.184161
85 1 9.979102 13.659777 26.726803
86 1 39.896881 9.157984 1.572028
87 1 22.886793 32.158137 4.397671
88 1 10.480074 39.282703 0.571272
89 1 39.862568 29.710885 16.815166
90 1 28.789925 36.228850 36.456453
91 1 38.072485 11.252174 19.475209
92 1 4.877353 31.564521 6.862581
93 1 0.606554 14.624583 21.667528
94 1 32.474550 6.015292 3.170915
95 1 17.708829 0.678808 28.574809
96 1 20.340207 33.873469 15.721331
97 1 9.165614 7.571890 2.512215
98 1 27.614588 21.003390 26.734552
99 1 5.311424 17.320421 7.777958
100 1 26.653011 2.835879 24.713721
101 1 1.101254 11.882863 7.696006
102 1 17.428476 15.359489 2.151682
103 1 2.248824 6.169266 7.766200
104 1 13.919974 37.201596 26.572051
105 1 0.176071 22.238224 8.805258
106 1 3.173116 28.578868 24.492709
107 1 36.732232 3.221208 11.988642
108 1 5.504625 15.389108 6.918798
109 1 1.468053 35.195965 5.084817
110 1 22.100759 2.574800 25.362433
111 1 23.917273 14.605615 4.319856
112 1 9.653567 9.263238 5.338000
113 1 31.772572 5.488554 3.689579
114 1 14.542671 3.797746 29.165098
115 1 25.855673 23.601745 2.531320
116 1 39.477254 14.770387 20.926777
117 1 20.832343 21.478283 29.788120
118 1 32.070263 0.623678 15.753809
119 1 24.891696 33.518391 7.352216
120 1 25.514670 13.769176 36.522945
121 1 21.691357 39.794234 5.491419
122 1 18.593365 33.510430 17.657912
123 1 1.433561 2.740467 36.780041
124 1 24.513079 39.441051 37.136359
125 1 15.451984 36.050521 22.425237
126 1 12.859012 39.419486 4.450872
127 1 1.209398 16.641353 15.104299
128 1 32.544709 10.923933 34.748244
129 1 30.433373 33.982074 5.545361
130 1 1.232739 16.973371 39.826192
131 1 24.458743 20.078540 14.276886
132 1 18.979806 10.108889 14.451472
133 1 26.084524 34.690528 6.282870
134 1 38.184824 8.962459 38.165159
135 1 37.839272 25.783222 15.667257
136 1 33.290764 39.617203 32.688092
137 1 39.845097 30.728131 7.667682
138 1 10.679296 39.708491 1.534421
139 1 20.857342 25.331647 0.639549
140 1 33.794829 37.416884 17.084945
141 1 19.332399 13.125065 22.501973
142 1 28.635456 10.617959 17.959418
143 1 14.913487 37.195727 13.794241
144 1 15.115727 9.978758 19.532445
145 1 19.291098 8.046967 2.589775
146 1 5.211153 10.702104 21.266114
147 1 24.982064 6.257063 31.790692
148 1 14.761116 21.133112 12.219857
149 1 26.373300 11.939188 5.674694
150 1 5.735210 3.948552 25.108175
151 1 1.369338 30.717421 22.467892
152 1 20.822775 36.648468 18.019550
153 1 27.519685 12.174267 6.393541
154 1 29.896451 10.959678 6.293572
155 1 38.147622 0.403461 34.431372
156 1 5.143195 20.925730 35.118033
157 1 26.113087 37.734142 25.268878
158 1 23.228946 39.514969 3.661767
159 1 28.893144 11.417875 32.584112
160 1 10.042856 14.232949 10.864978
161 1 23.742057 31.903266 17.886617
162 1 38.829040 36.082573 15.466665
163 1 39.351544 5.557641 28.588934
164 1 37.800588 10.418002 6.905112
165 1 16.698792 8.466519 20.590705
166 1 30.158769 20.407196 24.827621
167 1 13.810809 24.667945 28.579192
168 1 8.564304 26.634505 20.603279
169 1 7.157150 39.105947 8.528525
170 1 35.911107 37.665530 16.099361
171 1 5.491699 17.518638 4.888434
172 1 31.808148 1.168372 35.167187
173 1 25.865654 30.034707 31.103516
174 1 34.525261 5.630543 32.441580
175 1 20.830841 28.474094 25.533173
176 1 22.221109 3.511187 28.041858
177 1 22.556800 29.374889 32.002153
178 1 27.412741 40.277402 32.630782
179 1 25.008690 22.262083 11.741777
180 1 9.136643 31.225415 20.840349
181 1 2.463813 29.076257 39.182779
182 1 34.115358 9.526526 34.737856
183 1 10.325444 16.068243 16.969582
184 1 22.730976 35.666975 25.457121
185 1 20.631404 39.627126 15.016620
186 1 13.970369 10.174528 19.468281
187 1 40.036075 3.910873 18.848114
188 1 12.646127 14.800321 3.422935
189 1 18.000125 18.495478 4.479080
190 1 15.472628 10.822269 30.557032
191 1 16.098099 21.839991 3.865840
192 1 19.504804 16.783115 33.092176
193 1 5.234249 28.479799 15.327295
194 1 25.400170 33.750013 33.642978
195 1 33.811206 39.383535 28.170075
196 1 27.077284 27.142692 21.148693
197 1 37.970643 26.455288 38.741225
198 1 9.683042 16.787197 26.205742
199 1 4.048380 9.166514 40.243528
200 1 36.734041 29.224976 32.486870
201 1 38.150601 19.049872 38.787831
202 1 13.945082 16.268413 20.962421
203 1 14.429979 36.436465 3.584212
204 1 33.346416 11.578036 23.476321
205 1 5.727369 31.769361 25.277014
206 1 38.762083 12.877054 9.062639
207 1 15.668891 38.447551 15.646620
208 1 20.250481 39.066494 15.846868
209 1 20.837417 24.749825 31.469690
210 1 9.846944 25.939618 27.710728
211 1 32.688839 15.691168 4.851370
212 1 15.086618 20.847839 32.515266
213 1 22.826062 4.879267 14.878740
214 1 5.236911 29.666660 38.592107
215 1 2.074818 2.792375 17.829582
216 1 35.012154 31.635720 16.698545
217 1 25.939302 7.029900 14.956497
218 1 2.204030 13.222928 18.313272
219 1 11.169889 26.823473 11.220346
220 1 4.008714 38.860529 11.602471
221 1 0.071686 3.756619 7.862823
222 1 17.214854 20.016747 0.196241
223 1 5.354913 32.668304 5.099027
224 1 0.139447 33.131079 35.019403
225 1 31.603325 18.223592 17.713485
226 1 15.364960 13.319184 37.714606
227 1 27.095716 16.678381 32.966093
228 1 2.799132 14.104865 24.923059
229 1 34.837569 1.843155 37.093629
230 1 13.201822 2.786222 25.352764
231 1 36.550116 37.259534 6.940846
232 1 1.786581 6.782926 23.214147
233 1 31.368780 29.190744 33.256435
234 1 31.044731 8.130349 3.391409
235 1 4.471459 39.097044 14.463378
236 1 36.750446 27.509275 36.199967
237 1 9.334458 39.157307 0.689448
238 1 2.937901 2.196334 7.412871
239 1 22.434300 39.533459 8.682862
240 1 39.255545 10.237962 29.560158
241 1 14.139859 9.878089 15.119093
242 1 29.042683 37.700141 28.282041
243 1 18.487625 23.080650 2.386483
244 1 33.246610 7.395316 9.800500
245 1 16.373229 1.068068 14.522156
246 1 30.534626 21.111803 29.256687
247 1 14.333372 13.699703 24.261351
248 1 27.630667 14.576283 15.719072
249 1 18.158227 26.754332 16.207920
250 1 37.846390 3.621042 37.293662
251 1 33.957272 13.473334 40.073075
252 1 16.794992 9.534947 39.711714
253 1 28.623169 12.530691 30.393682
254 1 39.659406 13.466254 22.291445
255 1 31.166253 31.655742 27.200259
256 1 20.176634 26.029422 0.151843
257 1 27.349601 21.647114 34.534175
258 1 20.230485 15.657447 25.607357
259 1 39.670417 5.514780 26.064285
260 1 26.912583 7.382645 25.887431
261 1 38.772960 13.735997 26.060789
262 1 30.808486 12.309684 30.508709
263 1 13.760513 16.812095 5.163253
264 1 27.353861 15.198490 13.928728
265 1 28.229833 15.989306 37.608856
266 1 24.978329 31.344883 35.641793
267 1 1.451710 2.791747 2.064993
268 1 29.208543 19.260880 10.675827
269 1 2.541481 26.620970 7.972428
270 1 6.079585 27.082498 19.718191
271 1 28.733873 5.234666 15.476376
272 1 18.164971 38.061310 2.777868
273 1 37.584610 0.145502 32.775683
274 1 39.402757 12.984071 28.809951
275 1 15.835276 9.128350 36.645956
276 1 34.071152 24.134523 34.512306
277 1 24.182004 26.801751 16.329687
278 1 8.683663 10.567191 13.624941
279 1 13.709412 24.486998 36.775581
280 1 13.589362 21.720275 7.561407
281 1 29.740172 1.642900 0.733230
282 1 32.019085 14.275426 22.754120
283 1 15.723363 36.457450 0.236194
284 1 1.060307 34.619498 13.143274
285 1 15.769082 24.878024 26.801100
286 1 32.797432 31.892346 4.718341
287 1 10.088492 15.402702 22.872184
288 1 23.248093 14.076425 27.767189
289 1 27.874118 21.350643 30.555548
290 1 38.723828 18.764776 3.915752
291 1 0.446144 19.697403 3.657886
292 1 38.758153 38.930608 36.340862
293 1 17.121277 10.193451 32.116164
294 1 27.520703 2.346298 4.020347
295 1 2.585207 4.594271 16.521254
296 1 37.855565 25.073932 21.092524
297 1 39.476182 36.236127 25.690050
298 1 27.191441 29.930803 28.008687
299 1 16.575546 40.135645 16.848803
300 1 15.667277 1.550898 24.993111
301 1 15.226948 34.311887 18.787802
302 1 15.197666 32.418903 28.943025
303 1 12.154026 17.966242 29.989798
304 1 35.264672 33.641555 33.621460
305 1 7.516035 7.813361 6.535680
306 1 7.318744 28.607337 18.707075
307 1 30.016061 6.611340 0.997383
308 1 36.214792 30.923026 38.254961
309 1 33.306276 11.679226 23.111126
310 1 18.944813 23.158921 32.280862
311 1 11.922980 17.823014 24.655415
312 1 39.293462 22.019467 3.328919
313 1 23.057709 17.753206 29.910616
314 1 19.105535 19.177164 12.093519
315 1 16.019477 13.338339 25.472821
316 1 23.542383 1.131148 36.214345
317 1 9.914266 33.267712 29.054790
318 1 37.228007 38.994689 29.408422
319 1 29.402536 0.741635 39.165631
320 1 8.039391 15.445108 37.141055
321 1 28.813119 38.880563 14.338846
322 1 8.166910 33.858243 7.456883
323 1 40.080505 3.597531 34.272590
324 1 16.343248 34.777541 24.917497
325 1 11.591514 18.177715 10.959021
326 1 21.307643 6.968717 1.220033
327 1 29.534345 30.193942 35.194742
328 1 12.502661 14.897964 34.574508
329 1 6.387156 23.073519 13.867078
330 1 25.007503 31.941437 10.389574
331 1 32.656393 18.946304 19.501849
332 1 22.053053 23.056186 16.929517
333 1 29.871476 22.727716 21.711702
334 1 25.133944 29.864449 30.924805
335 1 12.576255 1.393042 10.654022
336 1 33.772583 20.840559 33.429313
337 1 9.991148 0.728823 24.857949
338 1 38.393573 0.046013 4.630011
339 1 28.008218 33.361367 5.052676
340 1 24.634633 26.055959 1.424127
341 1 33.025004 8.513491 15.295906
342 1 21.777472 13.325975 10.992646
343 1 6.798660 7.863935 1.006218
344 1 26.647976 28.022148 2.310066
345 1 34.804257 29.038606 7.053219
346 1 12.702240 25.647241 25.210870
347 1 18.387965 7.784442 36.761577
348 1 33.620110 20.376138 30.427788
349 1 34.316813 3.719211 16.115793
350 1 13.831469 4.107449 5.615730
351 1 4.523794 15.525548 24.502982
352 1 37.216835 8.300423 22.260853
353 1 16.631165 7.971071 3.636334
354 1 37.190779 31.594739 5.698330
355 1 36.209207 25.035981 18.889310
356 1 40.134262 10.113966 2.884749
357 1 37.250249 24.575202 10.299460
358 1 38.417921 26.392373 35.410708
359 1 8.186208 12.468263 0.938795
360 1 12.576288 24.262032 3.485495
361 1 35.711467 5.590540 15.034670
362 1 22.214455 24.136424 16.191794
363 1 38.050121 11.429273 14.790286
364 1 11.238244 6.531428 15.036244
365 1 24.099533 12.434384 1.173150
366 1 20.147283 37.323169 3.132463
367 1 30.426621 30.523645 0.195527
368 1 13.049230 20.100503 26.779915
369 1 13.732613 5.814616 3.885118
370 1 7.856323 15.697165 29.332551
371 1 32.750047 14.681318 26.795993
372 1 19.743969 24.556102 31.019143
373 1 11.515471 34.434442 31.803472
374 1 16.557397 29.585633 27.693856
375 1 17.273803 39.424576 31.591582
376 1 8.295059 27.552465 12.279246
377 1 36.621997 19.206319 1.647763
378 1 37.628740 14.074238 33.042787
379 1 32.028496 35.545962 28.479395
380 1 15.348989 6.960282 30.695609
381 1 3.690628 21.717626 23.070124
382 1 29.722844 2.527339 23.554263
383 1 35.749987 35.182211 9.106186
384 1 1.435426 20.525471 28.586513
385 1 22.771754 33.923408 12.872191
386 1 37.200334 37.475787 13.583677
387 1 16.913833 10.675699 28.083884
388 1 19.696615 27.816462 20.659000
389 1 16.518560 13.267873 0.443197
390 1 12.456351 10.254780 25.281971
391 1 33.026378 6.184692 17.217055
392 1 2.351015 8.256580 36.510158
393 1 29.116275 12.602390 9.735743
394 1 17.148190 13.692829 17.411892
395 1 35.422013 2.259661 20.630745
396 1 7.231301 2.594044 27.214360
397 1 31.083671 24.407707 7.321684
398 1 32.590534 13.685657 38.824168
399 1 2.531306 8.135922 28.329308
400 1 35.120621 39.885314 33.859478
401 1 7.405833 13.155363 34.528978
402 1 25.866375 19.118558 32.305859
403 1 32.044121 23.649418 14.404315
404 1 35.067874 20.560619 39.559473
405 1 29.498524 40.114028 8.622775
406 1 6.288137 1.738170 22.291082
407 1 33.798711 15.042636 20.385943
408 1 9.352480 4.734778 18.304529
409 1 33.182767 2.288479 37.911350
410 1 5.672196 2.679521 26.870165
411 1 24.180190 35.038198 1.299977
412 1 38.621680 10.747137 23.525497
413 1 38.204890 35.424518 25.240486
414 1 16.481717 6.329848 30.335632
415 1 20.005685 31.218710 34.957533
416 1 6.024785 11.695649 0.508886
417 1 6.651142 7.906900 39.119912
418 1 4.468034 24.425992 9.731321
419 1 28.842587 27.006678 20.676657
420 1 3.199521 2.208734 8.160189
421 1 20.064005 1.748085 9.455518
422 1 16.116430 30.592469 38.959659
423 1 20.434474 29.233896 21.305828
424 1 20.376719 26.613753 20.592701
425 1 15.927749 21.286313 11.894322
426 1 17.826364 6.986142 14.940792
427 1 25.588773 0.676759 19.415192
428 1 35.927245 30.312963 12.100494
429 1 36.101175 9.813785 15.904382
430 1 6.838775 28.997360 24.480441
431 1 5.474248 1.409224 38.960279
432 1 22.202541 18.620768 22.050222
433 1 38.263298 16.078714 32.884574
434 1 36.948902 7.071255 39.794507
435 1 7.260047 9.167097 37.750638
436 1 4.055899 22.976410 15.802786
437 1 22.502849 11.001931 4.705754
438 1 25.392738 4.039139 38.096424
439 1 31.624187 10.935972 4.004837
440 1 30.729078 5.723723 12.798922
441 1 34.025202 38.393923 31.124693
442 1 29.009390 38.145700 33.473563
443 1 35.958662 25.703995 33.754313
444 1 6.714787 2.757972 4.354875
445 1 38.347336 35.530347 20.148364
446 1 3.792514 18.710186 33.002008
447 1 1.941737 38.402533 14.245570
448 1 39.168279 18.302815 36.388758
449 1 17.115761 4.529879 18.428199
450 1 35.129207 3.501277 21.531847
451 1 1.287392 9.013583 0.823614
452 1 13.059877 23.135183 14.576932
453 1 29.018873 12.074297 2.144081
454 1 22.734671 29.010836 40.152784
455 1 25.850270 17.271777 35.909941
456 1 28.113527 12.105222 34.185888
457 1 36.262369 9.533498 1.452721
458 1 2.818491 17.082997 18.455526
459 1 33.933086 32.438948 25.898280
460 1 26.734319 37.797676 14.786476
461 1 16.544016 16.315321 23.937345
462 1 37.457256 2.389469 31.042572
463 1 23.480711 25.986518 19.422727
464 1 30.622229 25.789033 38.196245
465 1 7.964306 39.643658 29.237851
466 1 34.392074 10.361821 15.818007
467 1 20.236037 37.892390 29.687041
468 1 21.155081 15.233832 35.924945
469 1 33.182987 20.905146 35.337381
470 1 26.940114 39.112736 5.762456
471 1 14.284779 6.307187 37.456733
472 1 33.212180 35.903880 12.140609
473 1 40.096545 32.739446 36.293145
474 1 3.436809 37.951678 4.257336
475 1 25.764279 29.635565 28.227920
476 1 35.139957 1.567704 3.649409
477 1 23.868610 29.484787 10.173174
478 1 3.516334 11.405759 5.670732
479 1 9.133748 11.460874 17.101703
480 1 0.196187 34.723502 28.355331
481 1 2.612721 32.590939 17.223324
482 1 5.901016 28.394278 11.693460
483 1 10.871934 15.707493 30.163383
484 1 29.029052 8.358560 40.231917
485 1 16.619404 11.091003 1.992162
486 1 10.210563 15.971388 25.122388
487 1 5.108420 33.586437 0.579161
488 1 33.283587 35.228671 0.601025
489 1 14.304959 12.567410 25.498883
490 1 8.538325 11.993360 25.933188
491 1 37.780782 0.037854 7.613255
492 1 4.244391 15.357067 24.814838
493 1 2.592780 33.221449 36.693833
494 1 2.722332 37.112578 25.534885
495 1 35.284312 5.535010 24.293298
496 1 24.100975 30.713567 7.711067
497 1 28.681498 18.357015 15.322303
498 1 8.177290 16.206391 7.843173
499 1 10.009763 15.109705 19.663615
500 1 40.034454 25.853049 24.840976
501 1 4.738087 20.367634 3.824354
502 1 26.135201 9.460190 15.598141
503 1 2.455151 15.136352 20.923655
504 1 2.134488 15.380293 24.611001
505 1 16.976002 28.133613 0.973796
506 1 36.494717 11.625630 30.606740
507 1 13.179141 27.894572 7.089430
508 1 30.992507 21.574993 31.449141
509 1 7.254164 38.109035 0.816171
510 1 7.540018 31.624121 16.414043
511 1 21.530139 27.612913 32.078078
512 1 2.180655 28.075152 37.938271
513 1 35.791823 18.597995 13.672117
514 1 28.149313 13.562476 10.856386
515 1 34.827658 34.164176 26.721510
516 1 26.936525 10.288515 4.573951
517 1 18.874746 9.356643 30.860098
518 1 27.086126 14.642092 7.531669
519 1 30.435371 11.648200 36.218120
520 1 11.521827 32.241072 18.941583
521 1 4.727098 7.398929 28.849826
522 1 37.499100 31.774647 13.622673
523 1 15.485686 4.397169 7.788758
524 1 14.428802 28.645326 11.561123
525 1 10.440834 26.592090 11.166138
526 1 6.470767 0.405283 4.598917
527 1 17.176867 0.009384 36.543540
528 1 29.711473 9.691524 4.182991
529 1 8.706914 14.628096 8.844201
530 1 17.867397 19.583370 11.091051
531 1 13.819759 10.057323 4.822849
532 1 12.044549 33.272350 38.300621
533 1 0.698523 6.425555 26.262221
534 1 26.070946 20.440547 12.026725
535 1 1.105593 37.617435 18.604558
536 1 33.982712 39.829587 6.446024
537 1 39.908521 27.594311 15.850318
538 1 16.121836 26.319871 18.924122
539 1 9.328272 38.247245 3.102923
540 1 19.093333 0.752982 4.521291
541 1 31.676293 24.672075 22.777871
542 1 5.673194 15.683734 33.772655
543 1 16.191055 18.135290 34.297492
544 1 6.223324 32.709219 7.466514
545 1 25.904311 19.512869 36.970760
546 1 21.447420 7.403868 3.170041
547 1 13.186299 32.549469 22.325887
548 1 19.203393 17.606496 14.162987
549 1 34.091361 23.873413 8.555471
550 1 29.518454 8.878608 24.385517
551 1 14.443188 9.374187 24.876714
552 1 6.598588 2.439996 26.191120
553 1 6.437637 2.268107 33.711911
554 1 24.283203 38.863399 7.888650
555 1 30.803787 40.087241 38.999296
556 1 37.400470 11.883383 8.159047
557 1 39.294982 38.451489 33.076969
558 1 9.753366 4.930708 4.965395
559 1 22.840539 26.272238 36.170848
560 1 1.666237 35.483212 38.037633
561 1 9.510738 3.471993 11.900909
562 1 19.575706 7.177828 7.622350
563 1 25.060305 16.281249 20.805338
564 1 5.646465 4.647944 31.762224
565 1 0.953203 27.757788 7.749196
566 1 28.241858 25.467953 6.105857
567 1 5.322475 19.154834 36.430054
568 1 4.667068 8.428755 28.662997
569 1 15.858022 24.123844 4.084662
570 1 18.244192 17.679424 32.317838
571 1 0.478738 34.016499 14.617349
572 1 24.589897 36.624990 39.548074
573 1 26.190885 25.512182 31.151068
574 1 10.490399 33.299215 16.402441
575 1 4.267207 33.243514 20.377569
576 1 4.000144 0.685284 38.051690
577 1 16.662410 2.552701 18.629007
578 1 37.304331 16.776704 33.233186
579 1 33.031276 34.554782 26.100507
580 1 17.318067 21.145213 29.467212
581 1 30.883568 22.115051 37.783484
582 1 14.198000 8.069487 21.016972
583 1 20.088076 39.898495 21.227887
584 1 3.919648 22.869154 15.090946
585 1 25.124366 19.158860 30.476431
586 1 29.184926 37.337406 29.780640
587 1 11.507345 9.370783 7.365585
588 1 5.819010 22.176458 35.058850
589 1 17.623623 14.021743 31.749606
590 1 37.250949 10.993993 28.126217
591 1 16.092210 2.932753 14.658913
592 1 35.625175 9.784847 17.916298
593 1 28.424287 9.427742 37.295622
594 1 28.273767 20.267144 10.660175
595 1 0.722675 16.682287 15.223752
596 1 8.616510 7.602011 2.881000
597 1 23.999745 28.888463 17.893670
598 1 2.846198 18.976411 14.455584
599 1 7.762666 40.165274 27.042255
600 1 18.739001 28.323098 12.633159
601 1 7.251376 21.478742 17.239373
602 1 34.255967 24.555616 21.212945
603 1 30.420528 10.533484 26.385502
604 1 4.519162 26.918990 38.921055
605 1 32.935944 8.732118 28.157301
606 1 19.410048 5.947237 40.016407
607 1 39.373004 12.893994 10.102694
608 1 35.534927 1.278282 27.393351
609 1 1.180254 26.053285 32.108459
610 1 23.739305 8.392200 0.832204
611 1 38.121397 27.265616 12.439870
612 1 11.853231 0.465235 16.107320
613 1 9.074279 19.550978 25.199082
614 1 28.839837 24.829052 35.136670
615 1 5.412040 35.081739 29.451009
616 1 25.890262 24.199856 0.765986
617 1 37.957033 17.304213 6.319950
618 1 25.479292 2.519755 15.659839
619 1 21.062099 36.060349 26.519205
620 1 9.381387 17.103700 34.697887
621 1 25.331138 1.183552 3.253265
622 1 33.407396 23.337057 0.664035
623 1 2.664127 28.724178 10.999940
624 1 31.091894 9.227500 23.846850
625 1 37.215378 34.868956 20.584697
626 1 4.097772 26.637865 36.434851
627 1 36.966540 13.640237 1.796568
628 1 22.254782 24.194962 6.529187
629 1 30.310780 11.178553 1.571933
630 1 2.885961 3.555121 16.513132
631 1 29.414922 24.316247 38.455632
632 1 22.958180 11.713094 2.962704
633 1 33.261105 36.576717 26.256991
634 1 18.736964 7.066406 3.079994
635 1 15.613112 6.895991 22.072146
636 1 30.099245 37.748434 39.779411
637 1 11.120171 17.206413 23.160948
638 1 31.037908 13.593958 25.290944
639 1 9.464641 5.355895 29.207990
640 1 0.376707 39.652221 12.375449
641 1 32.750150 33.162866 11.023384
642 1 12.716232 14.854503 27.838201
643 1 25.407474 39.249043 8.023340
644 1 9.729820 30.682689 32.672814
645 1 20.030101 5.569987 29.866726
646 1 26.428858 23.024564 11.004224
647 1 30.426984 8.591725 17.642447
648 1 1.036076 33.794587 21.592925
649 1 4.445523 24.989894 35.837842
650 1 38.066058 25.712989 35.286087
651 1 31.777714 25.234042 24.719461
652 1 6.752388 8.441132 13.483128
653 1 25.148936 14.280241 14.446306
654 1 24.553125 29.917620 32.873975
655 1 15.303198 37.065438 37.847862
656 1 15.739929 13.576624 36.928947
657 1 13.367274 11.703381 12.987985
658 1 6.483205 8.865170 29.886113
659 1 16.481246 1.043120 8.449132
660 1 19.198876 36.190571 25.498480
661 1 18.752253 27.492437 36.954232
662 1 19.611457 37.710493 2.038103
663 1 6.304879 12.767919 14.096819
664 1 1.871015 20.435043 27.073764
665 1 39.302172 1.060199 35.456014
666 1 23.371539 25.850246 22.700933
667 1 35.882723 19.530158 11.335624
668 1 4.299090 33.628225 13.080271
669 1 40.200054 17.872054 15.298594
670 1 33.818499 31.345325 11.455129
671 1 17.901023 31.378715 20.584431
672 1 33.201364 33.372631 6.525612
673 1 3.291726 34.696769 0.568922
674 1 2.835189 26.395816 34.705852
675 1 7.087008 11.944276 17.782195
676 1 37.928316 30.064392 25.013118
677 1 9.375371 24.347574 22.863624
678 1 25.679306 9.816195 1.240860
679 1 24.455298 37.515248 36.921603
680 1 8.779262 18.348125 1.231925
681 1 8.555028 15.690900 3.831209
682 1 28.338329 13.370290 17.474232
683 1 21.357145 2.338855 3.938419
684 1 4.227497 10.997760 27.692620
685 1 25.253605 19.965979 5.172655
686 1 7.966196 1.419391 11.605601
687 1 35.283518 28.802385 8.053888
688 1 34.629626 17.202598 11.646038
689 1 34.203541 4.001569 19.416992
690 1 6.428491 22.366099 18.022311
691 1 18.668195 13.886304 33.885935
692 1 19.333500 20.137479 27.719433
693 1 29.246425 24.332728 35.393846
694 1 28.852071 10.022862 5.724830
695 1 27.139604 10.716769 9.926502
696 1 13.739038 12.270320 25.622088
697 1 20.243148 25.805547 32.086553
698 1 37.019199 4.149881 33.240980
699 1 18.042743 31.796751 25.253778
700 1 34.322194 4.222838 30.714523
701 1 0.924625 4.645457 27.828920
702 1 26.307368 2.302171 22.444120
703 1 35.213390 3.860600 39.048714
704 1 0.503270 5.108328 8.620120
705 1 33.157433 21.450202 33.212116
706 1 5.355112 1.788752 21.477309
707 1 5.574390 5.470822 19.380845
708 1 37.930280 36.907424 38.741882
709 1 26.897619 7.965241 24.878343
710 1 6.960559 38.499254 30.814819
711 1 24.394509 11.268450 36.907596
712 1 25.072475 10.561437 0.349857
713 1 28.655760 15.273243 3.148931
714 1 10.727179 29.907337 6.654455
715 1 33.867953 33.807838 24.306345
716 1 25.285808 15.933086 2.137921
717 1 23.631927 29.299390 27.774170
718 1 9.170223 4.427378 39.251208
719 1 6.720459 28.691324 18.281600
720 1 15.916871 14.190329 22.823283
721 1 13.728684 16.433551 37.000220
722 1 26.097299 11.076152 30.442059
723 1 22.327519 13.612799 39.417126
724 1 18.277938 14.356602 11.826432
725 1 8.479315 2.850054 32.046207
726 1 2.598759 12.910847 20.822755
727 1 6.193587 3.630152 4.568513
728 1 17.248700 39.035152 35.490434
729 1 17.076498 27.667593 2.497718
730 1 3.253243 23.176976 18.457124
731 1 19.364732 32.130531 25.111889
732 1 31.953387 34.780035 32.382951
733 1 16.101932 1.466237 30.136884
734 1 19.448120 36.673730 17.278315
735 1 4.145725 9.394368 37.229020
736 1 3.469655 31.586143 33.355008
737 1 19.209867 7.226004 8.332278
738 1 3.720841 35.534337 1.880871
739 1 39.385823 38.577972 37.419599
740 1 12.959618 21.950330 23.923466
741 1 29.400952 12.816980 35.503091
742 1 22.923272 4.831120 20.773038
743 1 15.235172 24.428341 22.514512
744 1 28.883854 33.879733 19.793061
745 1 21.347660 36.356535 26.256737
746 1 12.228404 23.646185 4.387528
747 1 13.288430 6.243203 29.602679
748 1 23.717527 22.139499 17.247645
749 1 29.951277 10.632691 16.325368
750 1 39.064408 39.860626 5.182581
751 1 25.966879 12.804388 8.548198
752 1 30.598087 35.535059 11.390183
753 1 21.106474 5.046240 7.674083
754 1 6.142820 9.538861 26.278191
755 1 2.251602 29.972858 31.266626
756 1 12.734496 10.559588 36.607459
757 1 29.336461 28.144620 38.166259
758 1 4.302840 16.452261 22.058387
759 1 7.983606 7.206913 5.281649
760 1 34.380898 11.495121 34.893206
761 1 37.044069 4.133011 1.811990
762 1 33.467995 23.565106 16.665744
763 1 0.844947 18.890324 32.779643
764 1 13.772584 13.600601 34.825451
765 1 34.728812 9.605189 37.839034
766 1 1.233964 39.155270 10.486659
767 1 35.974973 14.790223 27.313807
768 1 30.521413 16.492246 17.153382
769 1 14.067478 6.068308 19.428819
770 1 4.918485 35.114636 16.500589
771 1 39.847561 6.312539 31.968765
772 1 37.098212 35.601908 2.056482
773 1 16.755129 7.527230 17.434404
774 1 17.795763 25.930156 9.051013
775 1 18.810791 5.064440 34.910031
776 1 39.606046 29.490406 19.636783
777 1 37.709732 5.876089 13.768621
778 1 27.451823 28.970416 27.709124
779 1 0.326012 20.594320 19.221853
780 1 38.287918 0.975114 36.085104
781 1 24.267825 31.778602 6.449838
782 1 13.007185 32.865330 40.025880
783 1 5.141056 2.905398 33.364697
784 1 13.765425 30.316245 15.402912
785 1 39.642758 30.605659 11.191909
786 1 17.279945 16.389085 12.026356
787 1 23.781075 15.914526 1.135724
788 1 35.503585 22.041378 27.565253
789 1 8.171600 35.713483 29.147363
790 1 29.635490 15.592260 2.299780
791 1 8.963413 37.369615 0.905416
792 1 26.101304 22.282435 0.871614
793 1 1.752444 17.489629 23.881641
794 1 8.739258 12.450356 14.948492
795 1 33.778222 7.522696 16.410326
796 1 19.027161 10.291727 34.914882
797 1 34.762048 37.215391 4.265885
798 1 21.248543 37.909708 8.733748
799 1 31.766265 14.235165 4.727565
800 1 1.398321 18.279310 6.828067
801 1 23.683680 7.257217 5.114209
802 1 27.837223 9.050030 26.158606
803 1 26.163011 31.003187 5.935038
804 1 20.931537 5.940655 30.618424
805 1 7.102565 0.686376 14.945656
806 1 32.899882 25.907720 28.235192
807 1 22.574606 16.220860 19.667892
808 1 3.405270 29.217443 29.657206
809 1 17.712618 3.925395 34.022553
810 1 27.730863 11.925189 33.934525
811 1 38.148898 18.245942 0.220094
812 1 3.223313 17.885313 5.509668
813 1 38.222164 22.945487 11.929003
814 1 2.764352 16.819171 10.137203
815 1 35.507000 29.171718 39.556054
816 1 27.103328 32.552691 22.746909
817 1 12.654529 5.212029 5.650328
818 1 31.519849 5.370986 12.693836
819 1 11.547800 36.722149 21.132638
820 1 20.951416 33.796534 5.738489
821 1 13.472192 0.480619 32.013043
822 1 24.661445 8.019762 37.925148
823 1 26.962921 26.217575 14.037709
824 1 34.476378 11.021258 30.080792
825 1 22.383202 13.621604 36.329977
826 1 29.966186 14.976320 35.369245
827 1 11.990538 29.859068 21.208664
828 1 9.866695 15.904091 14.750869
829 1 30.739917 24.150748 36.718434
830 1 2.373022 9.329896 2.265046
831 1 2.531088 2.243894 4.613666
832 1 24.799991 3.139973 4.720728
833 1 0.409316 5.450309 18.844460
834 1 16.691521 32.997362 7.135720
835 1 4.820066 4.606921 6.220442
836 1 14.838643 19.680138 18.739407
837 1 20.688619 27.361990 20.344301
838 1 26.948926 16.274892 4.700248
839 1 5.762417 21.446108 20.484980
840 1 13.579320 31.471679 23.672788
841 1 30.946227 1.762706 24.442005
842 1 15.751540 28.129041 39.535086
843 1 14.953583 40.088509 7.113309
844 1 33.287230 35.820164 22.967580
845 1 35.967995 32.831658 33.771257
846 1 19.443203 0.015596 14.008639
847 1 27.559504 20.661404 11.755126
848 1 39.241827 22.728355 29.517696